Generated with NewCompositeBuilder        840 Polymer Atoms          0 Ceramic Atoms 

       840 atoms 
     0 impropers
***      atom types

          0.0000           70.0000  xlo xhi
          0.0000           70.0000  ylo yhi
          0.0000          120.0000  zlo zhi

Atoms

         1   1       0.00       18.724195       29.902112       93.218767
         2   1       0.00       25.969462       29.902112       93.218767
         3   3       0.00       23.546789       29.267228       94.399291
         4   3       0.00       23.601991       30.278877       93.540511
         5   1       0.00       23.336333       26.324392       90.483454
         6   1       0.00       19.503173       28.751909       93.097904
         7   1       0.00       22.489332       27.430217       90.547666
         8   1       0.00       19.158419       30.955032       94.023947
         9   1       0.00       24.593037       26.374642       91.086507
        10   1       0.00       20.716297       28.651384       93.783563
        11   1       0.00       22.898100       28.588872       91.212746
        12   1       0.00       20.372126       30.862191       94.711978
        13   1       0.00       25.008367       27.530275       91.755166
        14   1       0.00       22.434801       28.353564       96.299096
        15   1       0.00       22.928751       30.785331       96.177995
        16   1       0.00       24.595183       31.115038       91.541772
        17   1       0.00       21.174823       29.702758       94.606122
        18   1       0.00       24.166145       28.663921       91.828105
        19   1       0.00       22.523772       29.550925       95.333340
        20   1       0.00       24.568345       29.958213       92.559274
        21   2       0.00       17.784712       29.978724       92.686829
        22   2       0.00       23.018267       25.427350       89.968084
        23   2       0.00       19.168310       27.936274       92.470098
        24   2       0.00       21.512546       27.390125       90.083108
        25   2       0.00       18.553373       31.848029       94.115003
        26   2       0.00       25.248463       25.514513       91.037408
        27   2       0.00       21.302189       27.749308       93.663914
        28   2       0.00       22.215689       29.427979       91.252012
        29   2       0.00       20.665194       31.704936       95.320355
        30   2       0.00       25.988927       27.518450       92.207487
        31   2       0.00       22.209770       27.410043       95.760201
        32   2       0.00       21.640373       28.520966       97.058589
        33   2       0.00       23.402207       28.206545       96.826448
        34   2       0.00       23.028970       31.691930       95.544195
        35   2       0.00       22.178225       30.987868       96.972375
        36   2       0.00       23.910391       30.610401       96.668971
        37   2       0.00       23.603359       31.264676       91.067249
        38   2       0.00       25.339880       30.915191       90.740862
        39   2       0.00       24.864722       32.069046       92.044570
        40   2       0.00       26.023876       29.096396       93.981347
        41   2       0.00       26.760743       29.726164       92.458328
        42   2       0.00       26.192427       30.862932       93.731005
        43   1       0.00       45.772613       40.090435       92.725016
        44   1       0.00       53.017880       40.090435       92.725016
        45   3       0.00       50.595206       41.108024       91.852532
        46   3       0.00       50.650408       40.485258       93.024325
        47   1       0.00       50.384750       36.653785       89.814440
        48   1       0.00       46.551590       39.726578       91.627208
        49   1       0.00       49.537749       36.952816       90.881001
        50   1       0.00       46.206836       41.102014       93.581557
        51   1       0.00       51.641454       37.253646       89.734664
        52   1       0.00       47.764714       40.374920       91.382487
        53   1       0.00       49.946518       37.850126       91.870774
        54   1       0.00       47.420543       41.754313       93.343836
        55   1       0.00       52.056784       38.153806       90.720719
        56   1       0.00       49.483218       42.768707       90.554005
        57   1       0.00       49.977168       43.170044       92.955481
        58   1       0.00       51.643600       38.711364       94.268280
        59   1       0.00       48.223241       41.403145       92.233805
        60   1       0.00       51.214562       38.467308       91.812594
        61   1       0.00       49.572189       42.081121       91.930080
        62   1       0.00       51.616762       39.458163       92.920747
        63   2       0.00       44.833129       39.587155       92.913527
        64   2       0.00       50.066685       35.958631       89.048247
        65   2       0.00       46.216727       38.938982       90.964567
        66   2       0.00       48.560963       36.490421       90.941106
        67   2       0.00       45.601790       41.381790       94.434470
        68   2       0.00       52.296880       37.021882       88.904894
        69   2       0.00       48.350606       40.065270       90.526815
        70   2       0.00       49.264106       38.067792       92.682107
        71   2       0.00       47.713611       42.528723       94.037113
        72   2       0.00       53.037344       38.593153       90.612511
        73   2       0.00       49.258187       42.040640       89.747433
        74   2       0.00       48.688790       43.546429       90.555246
        75   2       0.00       50.450624       43.252462       90.297693
        76   2       0.00       50.077387       42.744614       93.976575
        77   2       0.00       49.226642       43.989356       92.983590
        78   2       0.00       50.958808       43.612299       92.679676
        79   2       0.00       50.651776       38.279778       94.515862
        80   2       0.00       52.388297       37.886249       94.244194
        81   2       0.00       51.913140       39.406409       95.092810
        82   2       0.00       53.072293       40.663228       91.774956
        83   2       0.00       53.809160       39.309963       92.715629
        84   2       0.00       53.240844       40.796158       93.554183
        85   1       0.00        4.085807       54.634041      101.110204
        86   1       0.00        4.516152       59.958124      106.005389
        87   3       0.00        3.115547       58.544405      104.080350
        88   3       0.00        4.111208       57.946570      104.724739
        89   1       0.00        6.553619       60.587674      101.244319
        90   1       0.00        4.087930       55.990606      100.787544
        91   1       0.00        6.597118       59.214141      101.480743
        92   1       0.00        3.465767       54.198394      102.281215
        93   1       0.00        6.039560       61.445122      102.216960
        94   1       0.00        3.468222       56.913587      101.633696
        95   1       0.00        6.129029       58.695739      102.690725
        96   1       0.00        2.844844       55.116483      103.133658
        97   1       0.00        5.567894       60.933395      103.429709
        98   1       0.00        1.042462       58.244101      102.943383
        99   1       0.00        1.537266       56.969246      105.017524
       100   1       0.00        6.263969       58.217240      105.711104
       101   1       0.00        2.832236       56.495920      102.822523
       102   1       0.00        5.607012       59.544098      103.690736
       103   1       0.00        2.172237       57.551195      103.729364
       104   1       0.00        5.092522       58.925646      105.003893
       105   2       0.00        4.566482       53.920141      100.453885
       106   2       0.00        6.916376       60.987879      100.306396
       107   2       0.00        4.572358       56.329398       99.880856
       108   2       0.00        6.992407       58.548159      100.724603
       109   2       0.00        3.466850       53.145137      102.531143
       110   2       0.00        6.004687       62.510946      102.030901
       111   2       0.00        3.492962       57.960428      101.360127
       112   2       0.00        6.169024       57.624822      102.841932
       113   2       0.00        2.380985       54.729679      104.028895
       114   2       0.00        5.177537       61.637904      104.149097
       115   2       0.00        1.427380       58.745348      102.031315
       116   2       0.00        0.268662       57.506776      102.637520
       117   2       0.00        0.557965       59.026370      103.567007
       118   2       0.00        2.298369       56.463565      105.648932
       119   2       0.00        0.736599       56.238571      104.771768
       120   2       0.00        1.085585       57.782779      105.625325
       121   2       0.00        6.695191       57.412450      105.080519
       122   2       0.00        7.071123       58.942161      105.953922
       123   2       0.00        5.918852       57.743527      106.655603
       124   2       0.00        3.651337       60.502378      105.570014
       125   2       0.00        5.289485       60.698966      106.302811
       126   2       0.00        4.159909       59.445078      106.924709
       127   1       0.00       58.035587       61.613051      100.519984
       128   1       0.00       65.280853       61.613051      100.519984
       129   3       0.00       62.858180       62.952768      100.563292
       130   3       0.00       62.913382       61.733553      100.039411
       131   1       0.00       62.647724       60.755307      104.941103
       132   1       0.00       58.814564       62.016588      101.603835
       133   1       0.00       61.800723       60.320783      103.922201
       134   1       0.00       58.469810       61.865646       99.218772
       135   1       0.00       63.904428       61.273018      104.627775
       136   1       0.00       60.027688       62.675364      101.388780
       137   1       0.00       62.209492       60.400863      102.588634
       138   1       0.00       59.683517       62.523126       98.995781
       139   1       0.00       64.319758       61.357648      103.295323
       140   1       0.00       61.746192       65.060684      100.536223
       141   1       0.00       62.240142       63.870228       98.412317
       142   1       0.00       63.906574       59.571520      100.179908
       143   1       0.00       60.486214       62.944210      100.081221
       144   1       0.00       63.477536       60.918560      102.247623
       145   1       0.00       61.835163       63.663033       99.893624
       146   1       0.00       63.879736       60.997475      100.763180
       147   2       0.00       57.096103       61.102582      100.688057
       148   2       0.00       62.329659       60.692898      105.973767
       149   2       0.00       58.479701       61.817264      102.613622
       150   2       0.00       60.823937       59.922582      104.164809
       151   2       0.00       57.864764       61.549857       98.378527
       152   2       0.00       64.559854       61.611757      105.419917
       153   2       0.00       60.613580       62.969586      102.249879
       154   2       0.00       61.527080       60.062672      101.819695
       155   2       0.00       59.976585       62.692988       97.970360
       156   2       0.00       65.300318       61.767990      103.104655
       157   2       0.00       61.521161       64.997886      101.620979
       158   2       0.00       60.951764       65.666369      100.048371
       159   2       0.00       62.713598       65.598373      100.433244
       160   2       0.00       62.340361       62.899237       97.882411
       161   2       0.00       61.489616       64.491524       97.877478
       162   2       0.00       63.221782       64.387760       98.350519
       163   2       0.00       62.914750       59.079976      100.257035
       164   2       0.00       64.651271       58.943180      100.715244
       165   2       0.00       64.176113       59.597324       99.101822
       166   2       0.00       65.335267       62.654485      100.902243
       167   2       0.00       66.072134       61.010321      101.015909
       168   2       0.00       65.503818       61.644279       99.431596
       169   1       0.00       63.817233       14.715727      100.608698
       170   1       0.00        1.062500       14.715727      100.608698
       171   3       0.00       68.639826       14.010163      101.748390
       172   3       0.00       68.695028       14.248799      100.443020
       173   1       0.00       68.429370       18.872461      102.341782
       174   1       0.00       64.596210       15.394972      101.544755
       175   1       0.00       67.582369       18.264461      101.415873
       176   1       0.00       64.251456       13.492248      100.098744
       177   1       0.00       69.686074       18.324931      102.599482
       178   1       0.00       65.809334       14.851193      101.974336
       179   1       0.00       67.991138       17.109536      100.744337
       180   1       0.00       65.465163       12.942577      100.522852
       181   1       0.00        0.101404       17.168415      101.932352
       182   1       0.00       67.527838       12.820734      103.488878
       183   1       0.00       68.021788       11.710949      101.321729
       184   1       0.00       69.688220       15.562649       98.720254
       185   1       0.00       66.267861       13.613432      101.474401
       186   1       0.00       69.259182       16.538958      100.986700
       187   1       0.00       67.616809       13.059280      101.969189
       188   1       0.00       69.661382       15.259027      100.230674
       189   2       0.00       62.877749       15.138280      100.276620
       190   2       0.00       68.111305       19.767013      102.861462
       191   2       0.00       64.261347       16.346263      101.937750
       192   2       0.00       66.605583       18.686938      101.218552
       193   2       0.00       63.646410       12.967303       99.370617
       194   2       0.00        0.341500       18.797111      103.320093
       195   2       0.00       66.395226       15.405444      102.696045
       196   2       0.00       67.308726       16.656376      100.037027
       197   2       0.00       65.758231       11.994575      100.096667
       198   2       0.00        1.081964       16.782473      102.168536
       199   2       0.00       67.302807       13.758882      104.037072
       200   2       0.00       66.733410       12.079160      103.723232
       201   2       0.00       68.495244       12.437323      103.879660
       202   2       0.00       68.122007       11.807157      100.219745
       203   2       0.00       67.271263       10.921602      101.543072
       204   2       0.00       69.003428       11.372992      101.718520
       205   2       0.00       68.696396       15.898986       98.353591
       206   2       0.00        0.432917       16.356309       98.493319
       207   2       0.00       69.957760       14.650534       98.144943
       208   2       0.00        1.116913       14.457563      101.687614
       209   2       0.00        1.853780       15.462389      100.381276
       210   2       0.00        1.285464       13.792031      100.032203
       211   1       0.00       39.240195       50.760541       98.161181
       212   1       0.00       46.485462       50.760541       98.161181
       213   3       0.00       44.062788       51.509012       97.049197
       214   3       0.00       44.117990       51.220819       98.344527
       215   1       0.00       43.852332       46.672849       96.270999
       216   1       0.00       40.019172       50.117450       97.199927
       217   1       0.00       43.005332       47.245134       97.219398
       218   1       0.00       39.674418       51.963705       98.717376
       219   1       0.00       45.109037       47.229799       96.034345
       220   1       0.00       41.232296       50.677200       96.791374
       221   1       0.00       43.414100       48.373638       97.934445
       222   1       0.00       40.888126       52.529133       98.314516
       223   1       0.00       45.524366       48.360060       96.745050
       224   1       0.00       42.950800       52.763884       95.355285
       225   1       0.00       43.444750       53.790302       97.563140
       226   1       0.00       45.111182       49.842291      100.015990
       227   1       0.00       41.690823       51.895017       97.338101
       228   1       0.00       44.682144       48.953035       97.713995
       229   1       0.00       43.039772       52.467616       96.864783
       230   1       0.00       45.084344       50.203234       98.518234
       231   2       0.00       38.300712       50.325644       98.476921
       232   2       0.00       43.534267       45.798745       95.717616
       233   2       0.00       39.684309       49.181821       96.770977
       234   2       0.00       42.028545       46.815447       97.400481
       235   2       0.00       39.069373       52.460529       99.464972
       236   2       0.00       45.764462       46.785415       95.296269
       237   2       0.00       41.818188       50.150846       96.049074
       238   2       0.00       42.731688       48.799523       98.658506
       239   2       0.00       41.181193       53.460212       98.776507
       240   2       0.00       46.504926       48.754720       96.523740
       241   2       0.00       42.725769       51.847301       94.771748
       242   2       0.00       42.156372       53.513847       95.149353
       243   2       0.00       43.918206       53.161904       94.979394
       244   2       0.00       43.544969       53.652183       98.660658
       245   2       0.00       42.694225       54.587509       97.372029
       246   2       0.00       44.426390       54.143131       97.179512
       247   2       0.00       44.119358       49.492230      100.369573
       248   2       0.00       45.855879       49.040562      100.212524
       249   2       0.00       45.380722       50.731827      100.625632
       250   2       0.00       46.539875       51.059621       97.092884
       251   2       0.00       47.276742       50.005757       98.359994
       252   2       0.00       46.708426       51.661605       98.772448
       253   1       0.00       32.672033       67.720956       95.859341
       254   1       0.00       39.917300       67.720956       95.859341
       255   3       0.00       37.494627       68.039532       94.557332
       256   3       0.00       37.549828       68.216231       95.872518
       257   1       0.00       37.284171       63.232039       95.496521
       258   1       0.00       33.451011       66.785556       95.179192
       259   1       0.00       36.437170       64.096548       96.189049
       260   1       0.00       33.106257       69.042161       95.965984
       261   1       0.00       38.540875       63.673050       95.082145
       262   1       0.00       34.664135       67.169852       94.602519
       263   1       0.00       36.845938       65.402522       96.470553
       264   1       0.00       34.319964       69.433752       95.392694
       265   1       0.00       38.956205       64.979175       95.358967
       266   1       0.00       36.382639       68.632482       92.534351
       267   1       0.00       36.876589        0.357996       94.252129
       268   1       0.00       38.543021       67.499477       97.917118
       269   1       0.00       35.122661       68.501541       94.695218
       270   1       0.00       38.113983       65.870194       96.063636
       271   1       0.00       36.471610       68.875539       94.053326
       272   1       0.00       38.516183       67.321173       96.386836
       273   2       0.00       31.732550       67.421795       96.305805
       274   2       0.00       36.966105       62.220634       95.278918
       275   2       0.00       33.116147       65.759366       95.099612
       276   2       0.00       35.460384       63.755791       96.507336
       277   2       0.00       32.501211       69.766527       96.496105
       278   2       0.00       39.196301       63.001187       94.542856
       279   2       0.00       35.250027       66.419600       94.087563
       280   2       0.00       36.163527       66.052185       97.003075
       281   2       0.00       34.613032        0.467078       95.504855
       282   2       0.00       39.936765       65.273171       95.015018
       283   2       0.00       36.157607       67.570800       92.303113
       284   2       0.00       35.588211       69.265247       92.082177
       285   2       0.00       37.350045       68.876267       92.044164
       286   2       0.00       36.976808        0.607253       95.329856
       287   2       0.00       36.126063        1.040216       93.797556
       288   2       0.00       37.858228        0.556696       93.770282
       289   2       0.00       37.551197       67.293002       98.369812
       290   2       0.00       39.287718       66.814885       98.378343
       291   2       0.00       38.812560       68.544787       98.182193
       292   2       0.00       39.971714       67.632850       94.753473
       293   2       0.00       40.708581       67.081209       96.306498
       294   2       0.00       40.140265       68.777645       96.121962
       295   1       0.00       15.584394       65.322738       94.898313
       296   1       0.00       22.829661       65.322738       94.898313
       297   3       0.00       20.406987       65.406884       96.236086
       298   3       0.00       20.462189       64.846063       95.033415
       299   1       0.00       20.196531       69.715641       93.906132
       300   1       0.00       16.363371       66.418392       95.268607
       301   1       0.00       19.349531       68.683961       93.502884
       302   1       0.00       16.018618       64.029835       95.190474
       303   1       0.00       21.453236       69.418248       94.433158
       304   1       0.00       17.576496       66.223528       95.933635
       305   1       0.00       19.758299       67.353457       93.623598
       306   1       0.00       17.232325       63.827000       95.854450
       307   1       0.00       21.868565       68.088996       94.558386
       308   1       0.00       19.294999       65.444115       98.343846
       309   1       0.00       19.788949       63.284891       97.218719
       310   1       0.00       21.455381       64.920558       92.868103
       311   1       0.00       18.035022       64.924777       96.242233
       312   1       0.00       21.026343       67.028393       94.151455
       313   1       0.00       19.383971       64.759190       96.966444
       314   1       0.00       21.428543       65.547047       94.275606
       315   2       0.00       14.644911       65.475164       94.382955
       316   2       0.00       19.878466        0.745921       93.812258
       317   2       0.00       16.028508       67.421630       95.038579
       318   2       0.00       18.372744       68.914311       93.097470
       319   2       0.00       15.413572       63.180350       94.900458
       320   2       0.00       22.108661        0.220352       94.747581
       321   2       0.00       18.162387       67.093200       96.201458
       322   2       0.00       19.075887       66.574561       93.309016
       323   2       0.00       17.525392       62.807236       96.055506
       324   2       0.00       22.849125       67.910932       94.974352
       325   2       0.00       19.069968       66.526451       98.247995
       326   2       0.00       18.500571       64.974963       98.964128
       327   2       0.00       20.262405       65.357583       98.884426
       328   2       0.00       19.889169       62.725618       96.264341
       329   2       0.00       19.038424       62.769249       97.856038
       330   2       0.00       20.770589       63.238906       97.737895
       331   2       0.00       20.463557       64.982658       92.374436
       332   2       0.00       22.200078       65.436481       92.223729
       333   2       0.00       21.724921       63.843760       92.926774
       334   2       0.00       22.884074       65.736581       95.927604
       335   2       0.00       23.620941       65.800050       94.280738
       336   2       0.00       23.052625       64.235809       94.962720
       337   1       0.00       32.958768       23.026414       93.718149
       338   1       0.00       40.204035       23.026414       93.718149
       339   3       0.00       37.781361       23.469569       92.453107
       340   3       0.00       37.836563       22.604112       93.459050
       341   1       0.00       37.570905       26.986694       95.862491
       342   1       0.00       33.737745       24.181400       93.658288
       343   1       0.00       36.723904       25.884373       95.971395
       344   1       0.00       33.392991       21.860879       93.086893
       345   1       0.00       38.827609       26.843078       95.274636
       346   1       0.00       34.950869       24.173843       92.965339
       347   1       0.00       37.132673       24.636227       95.495005
       348   1       0.00       34.606698       21.845363       92.392800
       349   1       0.00       39.242939       25.597360       94.794241
       350   1       0.00       36.669373       24.076004       90.434128
       351   1       0.00       37.163323       21.692820       90.932717
       352   1       0.00       38.829755       22.089650       95.563678
       353   1       0.00       35.409396       23.007127       92.316677
       354   1       0.00       38.400717       24.466198       94.898860
       355   1       0.00       36.758344       23.043775       91.574682
       356   1       0.00       38.802917       23.073774       94.378327
       357   2       0.00       32.019284       23.033636       94.255527
       358   2       0.00       37.252840       27.953091       96.231769
       359   2       0.00       33.402882       25.084907       94.151314
       360   2       0.00       35.747118       25.996371       96.424029
       361   2       0.00       32.787945       20.964602       93.136115
       362   2       0.00       39.483035       27.700350       95.189093
       363   2       0.00       35.536761       25.083544       92.942947
       364   2       0.00       36.450261       23.801254       95.586985
       365   2       0.00       34.899766       20.918105       91.923190
       366   2       0.00       40.223499       25.538551       94.345603
       367   2       0.00       36.444342       25.091979       90.819401
       368   2       0.00       35.874945       23.792287       89.710003
       369   2       0.00       37.636779       24.139044       89.890308
       370   2       0.00       37.263542       20.896069       91.700057
       371   2       0.00       36.412798       21.368961       90.179606
       372   2       0.00       38.144963       21.789098       90.420478
       373   2       0.00       37.837931       22.015790       96.055722
       374   2       0.00       39.574452       22.411870       96.323657
       375   2       0.00       39.099295       21.068942       95.215695
       376   2       0.00       40.258448       23.703445       92.839323
       377   2       0.00       40.995315       23.318719       94.441877
       378   2       0.00       40.426999       21.997506       93.361903
       379   1       0.00        8.143683       10.554761       95.025905
       380   1       0.00       15.388950       10.554761       95.025905
       381   3       0.00       12.966276       11.015172       96.284769
       382   3       0.00       13.021478       10.136041       95.290754
       383   1       0.00       12.755820       14.485350       92.827613
       384   1       0.00        8.922660       11.710457       95.069968
       385   1       0.00       11.908820       13.381643       92.733792
       386   1       0.00        8.577907        9.397967       95.673039
       387   1       0.00       14.012525       14.349785       93.417376
       388   1       0.00       10.135785       11.712376       95.762955
       389   1       0.00       12.317588       12.140128       93.227203
       390   1       0.00        9.791614        9.391943       96.367279
       391   1       0.00       14.427855       13.110753       93.914760
       392   1       0.00       11.854289       11.649157       98.295268
       393   1       0.00       12.348238        9.259378       97.829312
       394   1       0.00       14.014670        9.592850       93.193358
       395   1       0.00       10.594311       10.554639       96.427510
       396   1       0.00       13.585632       11.978265       93.825618
       397   1       0.00       11.943260       10.601430       97.168935
       398   1       0.00       13.987833       10.593090       94.365141
       399   2       0.00        7.204200       10.554634       94.488479
       400   2       0.00       12.437755       15.446607       92.445155
       401   2       0.00        8.587797       12.607138       94.564634