
          42  atoms
           3  atom types
          43  bonds
           0  angles
           0  dihedrals
           5   bond types
 -2147483648  angle types
 -2147483648  dihedral types
           0  improper types 

          0.0000           70.0000  xlo xhi
          0.0000           70.0000  ylo yhi
          0.0000          120.0000  zlo zhi

  Atoms

     1   3   1     0.300000    29.428182    69.495443   102.858393
     2   3   1     0.060000    22.182915    69.495443   102.858393
     3   3   3    -0.300000    24.605589    68.447863   103.694631
     4   3   3    -0.300000    24.550387    69.111366   102.545414
     5   3   1     0.300000    24.816045     2.827838   105.887776
     6   3   1     0.000000    28.649205    69.820551   103.968294
     7   3   1     0.000000    25.663045     2.566418   104.811379
     8   3   1    -0.180000    28.993958    68.514545   101.966881
     9   3   1    -0.180000    23.559340     2.225546   105.946453
    10   3   1    -0.180000    27.436080    69.164021   104.190112
    11   3   1    -0.180000    25.254277     1.704395   103.790727
    12   3   1    -0.060000    27.780251    67.854305   102.181565
    13   3   1    -0.060000    23.144011     1.360543   104.929416
    14   3   1    -0.060000    25.717577    66.742634   104.934080
    15   3   1    -0.060000    25.223627    66.425818   102.520000
    16   3   1    -0.060000    23.557195     0.927821   101.364474
    17   3   1    -0.060000    26.977554    68.166304   103.303236
    18   3   1    -0.060000    23.986233     1.085551   103.827213
    19   3   1    -0.060000    25.628605    67.478087   103.582981
    20   3   1    -0.060000    23.584033     0.134194   102.684970
    21   3   2     0.060000    30.367665     0.005028   102.687659
    22   3   2     0.060000    25.134110     3.495676   106.677892
    23   3   2     0.060000    28.984068     0.584409   104.658165
    24   3   2     0.060000    26.639832     3.030638   104.767537
    25   3   2     0.060000    29.599004    68.264872   101.104675
    26   3   2     0.060000    22.903915     2.428049   106.783845
    27   3   2     0.060000    26.850189    69.443452   105.056124
    28   3   2     0.060000    25.936689     1.515334   102.972255
    29   3   2     0.060000    27.487184    67.104701   101.461539
    30   3   2     0.060000    22.163451     0.917670   105.022140
    31   3   2     0.060000    25.942608    67.441949   105.765705
    32   3   2     0.060000    26.512005    65.965435   104.905548
    33   3   2     0.060000    24.750171    66.250183   105.173258
    34   3   2     0.060000    25.123407    66.886819   101.514464
    35   3   2     0.060000    25.974152    65.607998   102.463156
    36   3   2     0.060000    24.241987    65.974157   102.780115
    37   3   2     0.060000    24.549019     1.367830   101.132190
    38   3   2     0.060000    22.812498     1.751583   101.417500
    39   3   2     0.060000    23.287655     0.262139   100.516061
    40   3   2     0.060000    22.128502    68.889663   103.787767
    41   3   2     0.060000    21.391635     0.275105   102.895163
    42   3   2     0.060000    21.959951    68.819252   102.004971

  Bonds

           1           5           4           3
           2           1           6           1
           3           1           7           5
           4           1           8           1
           5           1           9           5
           6           1          10           6
           7           1          11           7
           8           1          12           8
           9           1          13           9
          10           1          17          10
          11           1          17          12
          12           1          18          13
          13           1          18          11
          14           1          19          14
          15           4          19           3
          16           1          19          17
          17           1          19          15
          18           1          20          18
          19           1          20           2
          20           4          20           4
          21           1          20          16
          22           2          21           1
          23           2          22           5
          24           2          23           6
          25           2          24           7
          26           2          25           8
          27           2          26           9
          28           2          27          10
          29           2          28          11
          30           2          29          12
          31           2          30          13
          32           2          31          14
          33           2          32          14
          34           2          33          14
          35           2          34          15
          36           2          35          15
          37           2          36          15
          38           2          37          16
          39           2          38          16
          40           2          39          16
          41           2          40           2
          42           2          41           2
          43           2          42           2

  Angles


  Dihedrals

