
         840  atoms
           3  atom types
         860  bonds
           0  angles
           0  dihedrals
           5   bond types
 -2147483648  angle types
 -2147483648  dihedral types
           0  improper types 

          0.0000           70.0000  xlo xhi
          0.0000           70.0000  ylo yhi
          0.0000          120.0000  zlo zhi

  Atoms

     1   3   1     0.300000    18.724195    29.902112    93.218767
     2   3   1     0.060000    25.969462    29.902112    93.218767
     3   3   3    -0.300000    23.546789    29.267228    94.399291
     4   3   3    -0.300000    23.601991    30.278877    93.540511
     5   3   1     0.300000    23.336333    26.324392    90.483454
     6   3   1     0.000000    19.503173    28.751909    93.097904
     7   3   1     0.000000    22.489332    27.430217    90.547666
     8   3   1    -0.180000    19.158419    30.955032    94.023947
     9   3   1    -0.180000    24.593037    26.374642    91.086507
    10   3   1    -0.180000    20.716297    28.651384    93.783563
    11   3   1    -0.180000    22.898100    28.588872    91.212746
    12   3   1    -0.060000    20.372126    30.862191    94.711978
    13   3   1    -0.060000    25.008367    27.530275    91.755166
    14   3   1    -0.060000    22.434801    28.353564    96.299096
    15   3   1    -0.060000    22.928751    30.785331    96.177995
    16   3   1    -0.060000    24.595183    31.115038    91.541772
    17   3   1    -0.060000    21.174823    29.702758    94.606122
    18   3   1    -0.060000    24.166145    28.663921    91.828105
    19   3   1    -0.060000    22.523772    29.550925    95.333340
    20   3   1    -0.060000    24.568345    29.958213    92.559274
    21   3   2     0.060000    17.784712    29.978724    92.686829
    22   3   2     0.060000    23.018267    25.427350    89.968084
    23   3   2     0.060000    19.168310    27.936274    92.470098
    24   3   2     0.060000    21.512546    27.390125    90.083108
    25   3   2     0.060000    18.553373    31.848029    94.115003
    26   3   2     0.060000    25.248463    25.514513    91.037408
    27   3   2     0.060000    21.302189    27.749308    93.663914
    28   3   2     0.060000    22.215689    29.427979    91.252012
    29   3   2     0.060000    20.665194    31.704936    95.320355
    30   3   2     0.060000    25.988927    27.518450    92.207487
    31   3   2     0.060000    22.209770    27.410043    95.760201
    32   3   2     0.060000    21.640373    28.520966    97.058589
    33   3   2     0.060000    23.402207    28.206545    96.826448
    34   3   2     0.060000    23.028970    31.691930    95.544195
    35   3   2     0.060000    22.178225    30.987868    96.972375
    36   3   2     0.060000    23.910391    30.610401    96.668971
    37   3   2     0.060000    23.603359    31.264676    91.067249
    38   3   2     0.060000    25.339880    30.915191    90.740862
    39   3   2     0.060000    24.864722    32.069046    92.044570
    40   3   2     0.060000    26.023876    29.096396    93.981347
    41   3   2     0.060000    26.760743    29.726164    92.458328
    42   3   2     0.060000    26.192427    30.862932    93.731005
    43   4   1     0.300000    45.772613    40.090435    92.725016
    44   4   1     0.060000    53.017880    40.090435    92.725016
    45   4   3    -0.300000    50.595206    41.108024    91.852532
    46   4   3    -0.300000    50.650408    40.485258    93.024325
    47   4   1     0.300000    50.384750    36.653785    89.814440
    48   4   1     0.000000    46.551590    39.726578    91.627208
    49   4   1     0.000000    49.537749    36.952816    90.881001
    50   4   1    -0.180000    46.206836    41.102014    93.581557
    51   4   1    -0.180000    51.641454    37.253646    89.734664
    52   4   1    -0.180000    47.764714    40.374920    91.382487
    53   4   1    -0.180000    49.946518    37.850126    91.870774
    54   4   1    -0.060000    47.420543    41.754313    93.343836
    55   4   1    -0.060000    52.056784    38.153806    90.720719
    56   4   1    -0.060000    49.483218    42.768707    90.554005
    57   4   1    -0.060000    49.977168    43.170044    92.955481
    58   4   1    -0.060000    51.643600    38.711364    94.268280
    59   4   1    -0.060000    48.223241    41.403145    92.233805
    60   4   1    -0.060000    51.214562    38.467308    91.812594
    61   4   1    -0.060000    49.572189    42.081121    91.930080
    62   4   1    -0.060000    51.616762    39.458163    92.920747
    63   4   2     0.060000    44.833129    39.587155    92.913527
    64   4   2     0.060000    50.066685    35.958631    89.048247
    65   4   2     0.060000    46.216727    38.938982    90.964567
    66   4   2     0.060000    48.560963    36.490421    90.941106
    67   4   2     0.060000    45.601790    41.381790    94.434470
    68   4   2     0.060000    52.296880    37.021882    88.904894
    69   4   2     0.060000    48.350606    40.065270    90.526815
    70   4   2     0.060000    49.264106    38.067792    92.682107
    71   4   2     0.060000    47.713611    42.528723    94.037113
    72   4   2     0.060000    53.037344    38.593153    90.612511
    73   4   2     0.060000    49.258187    42.040640    89.747433
    74   4   2     0.060000    48.688790    43.546429    90.555246
    75   4   2     0.060000    50.450624    43.252462    90.297693
    76   4   2     0.060000    50.077387    42.744614    93.976575
    77   4   2     0.060000    49.226642    43.989356    92.983590
    78   4   2     0.060000    50.958808    43.612299    92.679676
    79   4   2     0.060000    50.651776    38.279778    94.515862
    80   4   2     0.060000    52.388297    37.886249    94.244194
    81   4   2     0.060000    51.913140    39.406409    95.092810
    82   4   2     0.060000    53.072293    40.663228    91.774956
    83   4   2     0.060000    53.809160    39.309963    92.715629
    84   4   2     0.060000    53.240844    40.796158    93.554183
    85   5   1     0.300000     4.085807    54.634041   101.110204
    86   5   1     0.060000     4.516152    59.958124   106.005389
    87   5   3    -0.300000     3.115547    58.544405   104.080350
    88   5   3    -0.300000     4.111208    57.946570   104.724739
    89   5   1     0.300000     6.553619    60.587674   101.244319
    90   5   1     0.000000     4.087930    55.990606   100.787544
    91   5   1     0.000000     6.597118    59.214141   101.480743
    92   5   1    -0.180000     3.465767    54.198394   102.281215
    93   5   1    -0.180000     6.039560    61.445122   102.216960
    94   5   1    -0.180000     3.468222    56.913587   101.633696
    95   5   1    -0.180000     6.129029    58.695739   102.690725
    96   5   1    -0.060000     2.844844    55.116483   103.133658
    97   5   1    -0.060000     5.567894    60.933395   103.429709
    98   5   1    -0.060000     1.042462    58.244101   102.943383
    99   5   1    -0.060000     1.537266    56.969246   105.017524
   100   5   1    -0.060000     6.263969    58.217240   105.711104
   101   5   1    -0.060000     2.832236    56.495920   102.822523
   102   5   1    -0.060000     5.607012    59.544098   103.690736
   103   5   1    -0.060000     2.172237    57.551195   103.729364
   104   5   1    -0.060000     5.092522    58.925646   105.003893
   105   5   2     0.060000     4.566482    53.920141   100.453885
   106   5   2     0.060000     6.916376    60.987879   100.306396
   107   5   2     0.060000     4.572358    56.329398    99.880856
   108   5   2     0.060000     6.992407    58.548159   100.724603
   109   5   2     0.060000     3.466850    53.145137   102.531143
   110   5   2     0.060000     6.004687    62.510946   102.030901
   111   5   2     0.060000     3.492962    57.960428   101.360127
   112   5   2     0.060000     6.169024    57.624822   102.841932
   113   5   2     0.060000     2.380985    54.729679   104.028895
   114   5   2     0.060000     5.177537    61.637904   104.149097
   115   5   2     0.060000     1.427380    58.745348   102.031315
   116   5   2     0.060000     0.268662    57.506776   102.637520
   117   5   2     0.060000     0.557965    59.026370   103.567007
   118   5   2     0.060000     2.298369    56.463565   105.648932
   119   5   2     0.060000     0.736599    56.238571   104.771768
   120   5   2     0.060000     1.085585    57.782779   105.625325
   121   5   2     0.060000     6.695191    57.412450   105.080519
   122   5   2     0.060000     7.071123    58.942161   105.953922
   123   5   2     0.060000     5.918852    57.743527   106.655603
   124   5   2     0.060000     3.651337    60.502378   105.570014
   125   5   2     0.060000     5.289485    60.698966   106.302811
   126   5   2     0.060000     4.159909    59.445078   106.924709
   127   6   1     0.300000    58.035587    61.613051   100.519984
   128   6   1     0.060000    65.280853    61.613051   100.519984
   129   6   3    -0.300000    62.858180    62.952768   100.563292
   130   6   3    -0.300000    62.913382    61.733553   100.039411
   131   6   1     0.300000    62.647724    60.755307   104.941103
   132   6   1     0.000000    58.814564    62.016588   101.603835
   133   6   1     0.000000    61.800723    60.320783   103.922201
   134   6   1    -0.180000    58.469810    61.865646    99.218772
   135   6   1    -0.180000    63.904428    61.273018   104.627775
   136   6   1    -0.180000    60.027688    62.675364   101.388780
   137   6   1    -0.180000    62.209492    60.400863   102.588634
   138   6   1    -0.060000    59.683517    62.523126    98.995781
   139   6   1    -0.060000    64.319758    61.357648   103.295323
   140   6   1    -0.060000    61.746192    65.060684   100.536223
   141   6   1    -0.060000    62.240142    63.870228    98.412317
   142   6   1    -0.060000    63.906574    59.571520   100.179908
   143   6   1    -0.060000    60.486214    62.944210   100.081221
   144   6   1    -0.060000    63.477536    60.918560   102.247623
   145   6   1    -0.060000    61.835163    63.663033    99.893624
   146   6   1    -0.060000    63.879736    60.997475   100.763180
   147   6   2     0.060000    57.096103    61.102582   100.688057
   148   6   2     0.060000    62.329659    60.692898   105.973767
   149   6   2     0.060000    58.479701    61.817264   102.613622
   150   6   2     0.060000    60.823937    59.922582   104.164809
   151   6   2     0.060000    57.864764    61.549857    98.378527
   152   6   2     0.060000    64.559854    61.611757   105.419917
   153   6   2     0.060000    60.613580    62.969586   102.249879
   154   6   2     0.060000    61.527080    60.062672   101.819695
   155   6   2     0.060000    59.976585    62.692988    97.970360
   156   6   2     0.060000    65.300318    61.767990   103.104655
   157   6   2     0.060000    61.521161    64.997886   101.620979
   158   6   2     0.060000    60.951764    65.666369   100.048371
   159   6   2     0.060000    62.713598    65.598373   100.433244
   160   6   2     0.060000    62.340361    62.899237    97.882411
   161   6   2     0.060000    61.489616    64.491524    97.877478
   162   6   2     0.060000    63.221782    64.387760    98.350519
   163   6   2     0.060000    62.914750    59.079976   100.257035
   164   6   2     0.060000    64.651271    58.943180   100.715244
   165   6   2     0.060000    64.176113    59.597324    99.101822
   166   6   2     0.060000    65.335267    62.654485   100.902243
   167   6   2     0.060000    66.072134    61.010321   101.015909
   168   6   2     0.060000    65.503818    61.644279    99.431596
   169   7   1     0.300000    63.817233    14.715727   100.608698
   170   7   1     0.060000     1.062500    14.715727   100.608698
   171   7   3    -0.300000    68.639826    14.010163   101.748390
   172   7   3    -0.300000    68.695028    14.248799   100.443020
   173   7   1     0.300000    68.429370    18.872461   102.341782
   174   7   1     0.000000    64.596210    15.394972   101.544755
   175   7   1     0.000000    67.582369    18.264461   101.415873
   176   7   1    -0.180000    64.251456    13.492248   100.098744
   177   7   1    -0.180000    69.686074    18.324931   102.599482
   178   7   1    -0.180000    65.809334    14.851193   101.974336
   179   7   1    -0.180000    67.991138    17.109536   100.744337
   180   7   1    -0.060000    65.465163    12.942577   100.522852
   181   7   1    -0.060000     0.101404    17.168415   101.932352
   182   7   1    -0.060000    67.527838    12.820734   103.488878
   183   7   1    -0.060000    68.021788    11.710949   101.321729
   184   7   1    -0.060000    69.688220    15.562649    98.720254
   185   7   1    -0.060000    66.267861    13.613432   101.474401
   186   7   1    -0.060000    69.259182    16.538958   100.986700
   187   7   1    -0.060000    67.616809    13.059280   101.969189
   188   7   1    -0.060000    69.661382    15.259027   100.230674
   189   7   2     0.060000    62.877749    15.138280   100.276620
   190   7   2     0.060000    68.111305    19.767013   102.861462
   191   7   2     0.060000    64.261347    16.346263   101.937750
   192   7   2     0.060000    66.605583    18.686938   101.218552
   193   7   2     0.060000    63.646410    12.967303    99.370617
   194   7   2     0.060000     0.341500    18.797111   103.320093
   195   7   2     0.060000    66.395226    15.405444   102.696045
   196   7   2     0.060000    67.308726    16.656376   100.037027
   197   7   2     0.060000    65.758231    11.994575   100.096667
   198   7   2     0.060000     1.081964    16.782473   102.168536
   199   7   2     0.060000    67.302807    13.758882   104.037072
   200   7   2     0.060000    66.733410    12.079160   103.723232
   201   7   2     0.060000    68.495244    12.437323   103.879660
   202   7   2     0.060000    68.122007    11.807157   100.219745
   203   7   2     0.060000    67.271263    10.921602   101.543072
   204   7   2     0.060000    69.003428    11.372992   101.718520
   205   7   2     0.060000    68.696396    15.898986    98.353591
   206   7   2     0.060000     0.432917    16.356309    98.493319
   207   7   2     0.060000    69.957760    14.650534    98.144943
   208   7   2     0.060000     1.116913    14.457563   101.687614
   209   7   2     0.060000     1.853780    15.462389   100.381276
   210   7   2     0.060000     1.285464    13.792031   100.032203
   211   8   1     0.300000    39.240195    50.760541    98.161181
   212   8   1     0.060000    46.485462    50.760541    98.161181
   213   8   3    -0.300000    44.062788    51.509012    97.049197
   214   8   3    -0.300000    44.117990    51.220819    98.344527
   215   8   1     0.300000    43.852332    46.672849    96.270999
   216   8   1     0.000000    40.019172    50.117450    97.199927
   217   8   1     0.000000    43.005332    47.245134    97.219398
   218   8   1    -0.180000    39.674418    51.963705    98.717376
   219   8   1    -0.180000    45.109037    47.229799    96.034345
   220   8   1    -0.180000    41.232296    50.677200    96.791374
   221   8   1    -0.180000    43.414100    48.373638    97.934445
   222   8   1    -0.060000    40.888126    52.529133    98.314516
   223   8   1    -0.060000    45.524366    48.360060    96.745050
   224   8   1    -0.060000    42.950800    52.763884    95.355285
   225   8   1    -0.060000    43.444750    53.790302    97.563140
   226   8   1    -0.060000    45.111182    49.842291   100.015990
   227   8   1    -0.060000    41.690823    51.895017    97.338101
   228   8   1    -0.060000    44.682144    48.953035    97.713995
   229   8   1    -0.060000    43.039772    52.467616    96.864783
   230   8   1    -0.060000    45.084344    50.203234    98.518234
   231   8   2     0.060000    38.300712    50.325644    98.476921
   232   8   2     0.060000    43.534267    45.798745    95.717616
   233   8   2     0.060000    39.684309    49.181821    96.770977
   234   8   2     0.060000    42.028545    46.815447    97.400481
   235   8   2     0.060000    39.069373    52.460529    99.464972
   236   8   2     0.060000    45.764462    46.785415    95.296269
   237   8   2     0.060000    41.818188    50.150846    96.049074
   238   8   2     0.060000    42.731688    48.799523    98.658506
   239   8   2     0.060000    41.181193    53.460212    98.776507
   240   8   2     0.060000    46.504926    48.754720    96.523740
   241   8   2     0.060000    42.725769    51.847301    94.771748
   242   8   2     0.060000    42.156372    53.513847    95.149353
   243   8   2     0.060000    43.918206    53.161904    94.979394
   244   8   2     0.060000    43.544969    53.652183    98.660658
   245   8   2     0.060000    42.694225    54.587509    97.372029
   246   8   2     0.060000    44.426390    54.143131    97.179512
   247   8   2     0.060000    44.119358    49.492230   100.369573
   248   8   2     0.060000    45.855879    49.040562   100.212524
   249   8   2     0.060000    45.380722    50.731827   100.625632
   250   8   2     0.060000    46.539875    51.059621    97.092884
   251   8   2     0.060000    47.276742    50.005757    98.359994
   252   8   2     0.060000    46.708426    51.661605    98.772448
   253   9   1     0.300000    32.672033    67.720956    95.859341
   254   9   1     0.060000    39.917300    67.720956    95.859341
   255   9   3    -0.300000    37.494627    68.039532    94.557332
   256   9   3    -0.300000    37.549828    68.216231    95.872518
   257   9   1     0.300000    37.284171    63.232039    95.496521
   258   9   1     0.000000    33.451011    66.785556    95.179192
   259   9   1     0.000000    36.437170    64.096548    96.189049
   260   9   1    -0.180000    33.106257    69.042161    95.965984
   261   9   1    -0.180000    38.540875    63.673050    95.082145
   262   9   1    -0.180000    34.664135    67.169852    94.602519
   263   9   1    -0.180000    36.845938    65.402522    96.470553
   264   9   1    -0.060000    34.319964    69.433752    95.392694
   265   9   1    -0.060000    38.956205    64.979175    95.358967
   266   9   1    -0.060000    36.382639    68.632482    92.534351
   267   9   1    -0.060000    36.876589     0.357996    94.252129
   268   9   1    -0.060000    38.543021    67.499477    97.917118
   269   9   1    -0.060000    35.122661    68.501541    94.695218
   270   9   1    -0.060000    38.113983    65.870194    96.063636
   271   9   1    -0.060000    36.471610    68.875539    94.053326
   272   9   1    -0.060000    38.516183    67.321173    96.386836
   273   9   2     0.060000    31.732550    67.421795    96.305805
   274   9   2     0.060000    36.966105    62.220634    95.278918
   275   9   2     0.060000    33.116147    65.759366    95.099612
   276   9   2     0.060000    35.460384    63.755791    96.507336
   277   9   2     0.060000    32.501211    69.766527    96.496105
   278   9   2     0.060000    39.196301    63.001187    94.542856
   279   9   2     0.060000    35.250027    66.419600    94.087563
   280   9   2     0.060000    36.163527    66.052185    97.003075
   281   9   2     0.060000    34.613032     0.467078    95.504855
   282   9   2     0.060000    39.936765    65.273171    95.015018
   283   9   2     0.060000    36.157607    67.570800    92.303113
   284   9   2     0.060000    35.588211    69.265247    92.082177
   285   9   2     0.060000    37.350045    68.876267    92.044164
   286   9   2     0.060000    36.976808     0.607253    95.329856
   287   9   2     0.060000    36.126063     1.040216    93.797556
   288   9   2     0.060000    37.858228     0.556696    93.770282
   289   9   2     0.060000    37.551197    67.293002    98.369812
   290   9   2     0.060000    39.287718    66.814885    98.378343
   291   9   2     0.060000    38.812560    68.544787    98.182193
   292   9   2     0.060000    39.971714    67.632850    94.753473
   293   9   2     0.060000    40.708581    67.081209    96.306498
   294   9   2     0.060000    40.140265    68.777645    96.121962
   295  10   1     0.300000    15.584394    65.322738    94.898313
   296  10   1     0.060000    22.829661    65.322738    94.898313
   297  10   3    -0.300000    20.406987    65.406884    96.236086
   298  10   3    -0.300000    20.462189    64.846063    95.033415
   299  10   1     0.300000    20.196531    69.715641    93.906132
   300  10   1     0.000000    16.363371    66.418392    95.268607
   301  10   1     0.000000    19.349531    68.683961    93.502884
   302  10   1    -0.180000    16.018618    64.029835    95.190474
   303  10   1    -0.180000    21.453236    69.418248    94.433158
   304  10   1    -0.180000    17.576496    66.223528    95.933635
   305  10   1    -0.180000    19.758299    67.353457    93.623598
   306  10   1    -0.060000    17.232325    63.827000    95.854450
   307  10   1    -0.060000    21.868565    68.088996    94.558386
   308  10   1    -0.060000    19.294999    65.444115    98.343846
   309  10   1    -0.060000    19.788949    63.284891    97.218719
   310  10   1    -0.060000    21.455381    64.920558    92.868103
   311  10   1    -0.060000    18.035022    64.924777    96.242233
   312  10   1    -0.060000    21.026343    67.028393    94.151455
   313  10   1    -0.060000    19.383971    64.759190    96.966444
   314  10   1    -0.060000    21.428543    65.547047    94.275606
   315  10   2     0.060000    14.644911    65.475164    94.382955
   316  10   2     0.060000    19.878466     0.745921    93.812258
   317  10   2     0.060000    16.028508    67.421630    95.038579
   318  10   2     0.060000    18.372744    68.914311    93.097470
   319  10   2     0.060000    15.413572    63.180350    94.900458
   320  10   2     0.060000    22.108661     0.220352    94.747581
   321  10   2     0.060000    18.162387    67.093200    96.201458
   322  10   2     0.060000    19.075887    66.574561    93.309016
   323  10   2     0.060000    17.525392    62.807236    96.055506
   324  10   2     0.060000    22.849125    67.910932    94.974352
   325  10   2     0.060000    19.069968    66.526451    98.247995
   326  10   2     0.060000    18.500571    64.974963    98.964128
   327  10   2     0.060000    20.262405    65.357583    98.884426
   328  10   2     0.060000    19.889169    62.725618    96.264341
   329  10   2     0.060000    19.038424    62.769249    97.856038
   330  10   2     0.060000    20.770589    63.238906    97.737895
   331  10   2     0.060000    20.463557    64.982658    92.374436
   332  10   2     0.060000    22.200078    65.436481    92.223729
   333  10   2     0.060000    21.724921    63.843760    92.926774
   334  10   2     0.060000    22.884074    65.736581    95.927604
   335  10   2     0.060000    23.620941    65.800050    94.280738
   336  10   2     0.060000    23.052625    64.235809    94.962720
   337  11   1     0.300000    32.958768    23.026414    93.718149
   338  11   1     0.060000    40.204035    23.026414    93.718149
   339  11   3    -0.300000    37.781361    23.469569    92.453107
   340  11   3    -0.300000    37.836563    22.604112    93.459050
   341  11   1     0.300000    37.570905    26.986694    95.862491
   342  11   1     0.000000    33.737745    24.181400    93.658288
   343  11   1     0.000000    36.723904    25.884373    95.971395
   344  11   1    -0.180000    33.392991    21.860879    93.086893
   345  11   1    -0.180000    38.827609    26.843078    95.274636
   346  11   1    -0.180000    34.950869    24.173843    92.965339
   347  11   1    -0.180000    37.132673    24.636227    95.495005
   348  11   1    -0.060000    34.606698    21.845363    92.392800
   349  11   1    -0.060000    39.242939    25.597360    94.794241
   350  11   1    -0.060000    36.669373    24.076004    90.434128
   351  11   1    -0.060000    37.163323    21.692820    90.932717
   352  11   1    -0.060000    38.829755    22.089650    95.563678
   353  11   1    -0.060000    35.409396    23.007127    92.316677
   354  11   1    -0.060000    38.400717    24.466198    94.898860
   355  11   1    -0.060000    36.758344    23.043775    91.574682
   356  11   1    -0.060000    38.802917    23.073774    94.378327
   357  11   2     0.060000    32.019284    23.033636    94.255527
   358  11   2     0.060000    37.252840    27.953091    96.231769
   359  11   2     0.060000    33.402882    25.084907    94.151314
   360  11   2     0.060000    35.747118    25.996371    96.424029
   361  11   2     0.060000    32.787945    20.964602    93.136115
   362  11   2     0.060000    39.483035    27.700350    95.189093
   363  11   2     0.060000    35.536761    25.083544    92.942947
   364  11   2     0.060000    36.450261    23.801254    95.586985
   365  11   2     0.060000    34.899766    20.918105    91.923190
   366  11   2     0.060000    40.223499    25.538551    94.345603
   367  11   2     0.060000    36.444342    25.091979    90.819401
   368  11   2     0.060000    35.874945    23.792287    89.710003
   369  11   2     0.060000    37.636779    24.139044    89.890308
   370  11   2     0.060000    37.263542    20.896069    91.700057
   371  11   2     0.060000    36.412798    21.368961    90.179606
   372  11   2     0.060000    38.144963    21.789098    90.420478
   373  11   2     0.060000    37.837931    22.015790    96.055722
   374  11   2     0.060000    39.574452    22.411870    96.323657
   375  11   2     0.060000    39.099295    21.068942    95.215695
   376  11   2     0.060000    40.258448    23.703445    92.839323
   377  11   2     0.060000    40.995315    23.318719    94.441877
   378  11   2     0.060000    40.426999    21.997506    93.361903
   379  12   1     0.300000     8.143683    10.554761    95.025905
   380  12   1     0.060000    15.388950    10.554761    95.025905
   381  12   3    -0.300000    12.966276    11.015172    96.284769
   382  12   3    -0.300000    13.021478    10.136041    95.290754
   383  12   1     0.300000    12.755820    14.485350    92.827613
   384  12   1     0.000000     8.922660    11.710457    95.069968
   385  12   1     0.000000    11.908820    13.381643    92.733792
   386  12   1    -0.180000     8.577907     9.397967    95.673039
   387  12   1    -0.180000    14.012525    14.349785    93.417376
   388  12   1    -0.180000    10.135785    11.712376    95.762955
   389  12   1    -0.180000    12.317588    12.140128    93.227203
   390  12   1    -0.060000     9.791614     9.391943    96.367279
   391  12   1    -0.060000    14.427855    13.110753    93.914760
   392  12   1    -0.060000    11.854289    11.649157    98.295268
   393  12   1    -0.060000    12.348238     9.259378    97.829312
   394  12   1    -0.060000    14.014670     9.592850    93.193358
   395  12   1    -0.060000    10.594311    10.554639    96.427510
   396  12   1    -0.060000    13.585632    11.978265    93.825618
   397  12   1    -0.060000    11.943260    10.601430    97.168935
   398  12   1    -0.060000    13.987833    10.593090    94.365141
   399  12   2     0.060000     7.204200    10.554634    94.488479
   400  12   2     0.060000    12.437755    15.446607    92.445155
   401  12   2     0.060000     8.587797    12.607138    94.564634
   402  12   2     0.060000    10.932033    13.487442    92.279668
   403  12   2     0.060000     7.972861     8.501100    95.636077
   404  12   2     0.060000    14.667950    15.208147    93.491190
   405  12   2     0.060000    10.721677    12.622299    95.772906
   406  12   2     0.060000    11.635176    11.303975    93.146649
   407  12   2     0.060000    10.084682     8.471192    96.849525
   408  12   2     0.060000    15.408414    13.058083    94.364160
   409  12   2     0.060000    11.629257    12.659769    97.896139
   410  12   2     0.060000    11.059861    11.375368    99.023205
   411  12   2     0.060000    12.821695    11.719627    98.838175
   412  12   2     0.060000    12.448458     8.452209    97.072938
   413  12   2     0.060000    11.597713     8.945847    98.586781
   414  12   2     0.060000    13.329878     9.362652    98.340187
   415  12   2     0.060000    13.022846     9.512268    92.702369
   416  12   2     0.060000    14.759368     9.904647    92.429043
   417  12   2     0.060000    14.284210     8.576995    93.555265
   418  12   2     0.060000    15.443364    11.243746    95.895391
   419  12   2     0.060000    16.180231    10.837143    94.298248
   420  12   2     0.060000    15.611915     9.530821    95.396187
   421  13   1     0.300000    11.822160    58.954083   106.262124
   422  13   1     0.060000    19.067427    58.954083   106.262124
   423  13   3    -0.300000    16.644753    57.785955   106.919540
   424  13   3    -0.300000    16.699955    59.100142   106.735555
   425  13   1     0.300000    16.434297    57.395877   102.036723
   426  13   1     0.000000    12.601137    58.047171   105.544429
   427  13   1     0.000000    15.587297    58.295621   102.682812
   428  13   1    -0.180000    12.256383    59.412565   107.505807
   429  13   1    -0.180000    17.691002    57.115565   102.573028
   430  13   1    -0.180000    13.814261    57.595284   106.069817
   431  13   1    -0.180000    15.996065    58.918403   103.864741
   432  13   1    -0.060000    13.470091    58.965900   108.037311
   433  13   1    -0.060000    18.106331    57.733878   103.756363
   434  13   1    -0.060000    15.532765    55.997373   108.035341
   435  13   1    -0.060000    16.026715    58.116349   109.234548
   436  13   1    -0.060000    17.693147    60.876208   105.494702
   437  13   1    -0.060000    14.272788    58.043159   107.327353
   438  13   1    -0.060000    17.264109    58.652453   104.424714
   439  13   1    -0.060000    15.621737    57.525689   107.860386
   440  13   1    -0.060000    17.666309    59.354438   105.735063
   441  13   2     0.060000    10.882677    59.303496   105.853788
   442  13   2     0.060000    16.116232    56.913959   101.121275