Generated with NewCompositeBuilder         42 Polymer Atoms          0 Ceramic Atoms 

        42 atoms 
     0 impropers
***      atom types

          0.0000           70.0000  xlo xhi
          0.0000           70.0000  ylo yhi
          0.0000          120.0000  zlo zhi

Atoms

         1   1       0.00       29.428182       69.495443      102.858393
         2   1       0.00       22.182915       69.495443      102.858393
         3   3       0.00       24.605589       68.447863      103.694631
         4   3       0.00       24.550387       69.111366      102.545414
         5   1       0.00       24.816045        2.827838      105.887776
         6   1       0.00       28.649205       69.820551      103.968294
         7   1       0.00       25.663045        2.566418      104.811379
         8   1       0.00       28.993958       68.514545      101.966881
         9   1       0.00       23.559340        2.225546      105.946453
        10   1       0.00       27.436080       69.164021      104.190112
        11   1       0.00       25.254277        1.704395      103.790727
        12   1       0.00       27.780251       67.854305      102.181565
        13   1       0.00       23.144011        1.360543      104.929416
        14   1       0.00       25.717577       66.742634      104.934080
        15   1       0.00       25.223627       66.425818      102.520000
        16   1       0.00       23.557195        0.927821      101.364474
        17   1       0.00       26.977554       68.166304      103.303236
        18   1       0.00       23.986233        1.085551      103.827213
        19   1       0.00       25.628605       67.478087      103.582981
        20   1       0.00       23.584033        0.134194      102.684970
        21   2       0.00       30.367665        0.005028      102.687659
        22   2       0.00       25.134110        3.495676      106.677892
        23   2       0.00       28.984068        0.584409      104.658165
        24   2       0.00       26.639832        3.030638      104.767537
        25   2       0.00       29.599004       68.264872      101.104675
        26   2       0.00       22.903915        2.428049      106.783845
        27   2       0.00       26.850189       69.443452      105.056124
        28   2       0.00       25.936689        1.515334      102.972255
        29   2       0.00       27.487184       67.104701      101.461539
        30   2       0.00       22.163451        0.917670      105.022140
        31   2       0.00       25.942608       67.441949      105.765705
        32   2       0.00       26.512005       65.965435      104.905548
        33   2       0.00       24.750171       66.250183      105.173258
        34   2       0.00       25.123407       66.886819      101.514464
        35   2       0.00       25.974152       65.607998      102.463156
        36   2       0.00       24.241987       65.974157      102.780115
        37   2       0.00       24.549019        1.367830      101.132190
        38   2       0.00       22.812498        1.751583      101.417500
        39   2       0.00       23.287655        0.262139      100.516061
        40   2       0.00       22.128502       68.889663      103.787767
        41   2       0.00       21.391635        0.275105      102.895163
        42   2       0.00       21.959951       68.819252      102.004971
