Generated with NewCompositeBuilder        840 Polymer Atoms          0 Ceramic Atoms 
 
       840 atoms 
     0 impropers
  3      atom types
 
          0.0000           70.0000  xlo xhi
          0.0000           70.0000  ylo yhi
          0.0000          120.0000  zlo zhi
 
Atoms
 
         1   1       0.00        9.957100       30.607738      101.337494
         2   1       0.00       10.927368       32.620036      108.229746
         3   3       0.00       11.866459       31.502294      105.877124
         4   3       0.00       10.857277       32.364198      105.825577
         5   1       0.00        8.541641       28.117269      107.112256
         6   1       0.00       10.147365       29.713776      102.390591
         7   1       0.00        8.294894       28.942496      106.015671
         8   1       0.00       10.613767       31.838295      101.342235
         9   1       0.00        9.289024       28.595331      108.188536
        10   1       0.00       10.996170       30.047449      103.448938
        11   1       0.00        8.792816       30.247685      105.994211
        12   1       0.00       11.463600       32.179757      102.398776
        13   1       0.00        9.791851       29.899949      108.173449
        14   1       0.00       13.731783       30.580300      104.714778
        15   1       0.00       13.248998       33.014193      104.591380
        16   1       0.00        8.893312       33.166155      106.911977
        17   1       0.00       11.673309       31.285626      103.474120
        18   1       0.00        9.549323       30.754142      107.072837
        19   1       0.00       12.589915       31.613817      104.667303
        20   1       0.00       10.086772       32.195420      106.999174
        21   2       0.00        9.299060       30.348026      100.518355
        22   2       0.00        8.155484       27.106275      107.127437
        23   2       0.00        9.634908       28.760404      102.389070
        24   2       0.00        7.718232       28.570496      105.178646
        25   2       0.00       10.463303       32.531904      100.524872
        26   2       0.00        9.481321       27.952629      109.038108
        27   2       0.00       11.117798       29.336033      104.255425
        28   2       0.00        8.591043       30.861571      105.126018
        29   2       0.00       11.946714       33.144691      102.357116
        30   2       0.00       10.366285       30.221968      109.029347
        31   2       0.00       13.343382       29.547767      104.834362
        32   2       0.00       14.336260       30.621184      103.782627
        33   2       0.00       14.401565       30.780180      105.579086
        34   2       0.00       12.483820       33.818985      104.569480
        35   2       0.00       13.887146       33.105389      103.685951
        36   2       0.00       13.890165       33.186579      105.482706
        37   2       0.00        8.271305       32.969100      106.014449
        38   2       0.00        8.247542       33.075019      107.812334
        39   2       0.00        9.250619       34.216162      106.838456
        40   2       0.00       11.820945       31.971495      108.350503
        41   2       0.00       10.323062       32.570022      109.161230
        42   2       0.00       11.286436       33.664858      108.108530
        43   1       0.00       54.360075       33.184520      102.991302
        44   1       0.00       58.689333       31.498090      108.550742
        45   3       0.00       57.551679       30.900847      106.098169
        46   3       0.00       56.927190       31.744218      106.912247
        47   1       0.00       60.364697       34.695497      104.784426
        48   1       0.00       55.748615       33.096590      102.898534
        49   1       0.00       58.979444       34.853411      104.807213
        50   1       0.00       53.663408       32.322654      103.838265
        51   1       0.00       60.979645       33.817684      105.677055
        52   1       0.00       56.442774       32.145439      103.650438
        53   1       0.00       58.206903       34.135908      105.723879
        54   1       0.00       54.351499       31.369223      104.594963
        55   1       0.00       60.212827       33.095111      106.596277
        56   1       0.00       57.301160       29.293316      104.356434
        57   1       0.00       55.704990       29.347104      106.259457
        58   1       0.00       57.183450       33.473970      108.531768
        59   1       0.00       55.759063       31.260987      104.512133
        60   1       0.00       58.807173       33.244011      106.638444
        61   1       0.00       56.568046       30.236737      105.329459
        62   1       0.00       57.913562       32.466624      107.622665
        63   2       0.00       53.823619       33.922011      102.408397
        64   2       0.00       60.961927       35.251811      104.073591
        65   2       0.00       56.289834       33.767843      102.244290
        66   2       0.00       58.501614       35.531623      104.112058
        67   2       0.00       52.585659       32.393685      103.910561
        68   2       0.00       62.054960       33.694821      105.656589
        69   2       0.00       57.520787       32.106477      103.562703
        70   2       0.00       57.133554       34.274173      105.712316
        71   2       0.00       53.767113       30.727157      105.237206
        72   2       0.00       60.735662       32.426830      107.264316
        73   2       0.00       57.994264       29.849874      103.692259
        74   2       0.00       56.573418       28.743281      103.720964
        75   2       0.00       57.910355       28.552308      104.918019
        76   2       0.00       55.153944       29.959043      107.004807
        77   2       0.00       54.970293       28.753665      105.673452
        78   2       0.00       56.350440       28.637565      106.820904
        79   2       0.00       56.549154       34.169351      107.944067
        80   2       0.00       57.913595       34.075170      109.116075
        81   2       0.00       56.514477       32.942370      109.242728
        82   2       0.00       59.232907       30.727060      107.964475
        83   2       0.00       59.422060       32.049598      109.178674
        84   2       0.00       57.985667       30.968295      109.228566
        85   1       0.00       63.843576       67.220899       98.663536
        86   1       0.00        0.336028       67.564349      101.861036
        87   3       0.00       68.660807       66.605670       99.875933
        88   3       0.00       68.134503       67.010556      101.026174
        89   1       0.00       68.803601        1.337700       98.600839
        90   1       0.00       64.966404       67.811878       98.085278
        91   1       0.00       67.625318        0.812793       99.130465
        92   1       0.00       63.989303       66.094089       99.472590
        93   1       0.00        0.036383        0.822060       99.000677
        94   1       0.00       66.236439       67.276054       98.312893
        95   1       0.00       67.677511       69.773224      100.062386
        96   1       0.00       65.257350       65.553149       99.706111
        97   1       0.00        0.096387       69.780667       99.931800
        98   1       0.00       68.419844       65.153401       98.001524
        99   1       0.00       67.885486       64.352598      100.291790
       100   1       0.00       68.278620       68.578214      102.815653
       101   1       0.00       66.408188       66.134972       99.125709
       102   1       0.00       68.913327       69.237236      100.483943
       103   1       0.00       67.828718       65.587025       99.356816
       104   1       0.00       68.920399       68.084239      101.504782
       105   2       0.00       62.860307       67.637202       98.486536
       106   2       0.00       68.761670        2.142891       97.878783
       107   2       0.00       64.854012       68.688584       97.460547
       108   2       0.00       66.668405        1.210132       98.817461
       109   2       0.00       63.116742       65.637813       99.922330
       110   2       0.00        0.950014        1.229401       98.586954
       111   2       0.00       67.089399       67.761272       97.856440
       112   2       0.00       66.745864       69.381758      100.449835
       113   2       0.00       65.317610       64.681938      100.341399
       114   2       0.00        1.074435       69.414766      100.207063
       115   2       0.00       68.474540       66.002574       97.289350
       116   2       0.00       67.801538       64.351246       97.543034
       117   2       0.00       69.454726       64.769745       98.133489
       118   2       0.00       67.487756       64.592666      101.300674
       119   2       0.00       67.300079       63.506844       99.870661
       120   2       0.00       68.936426       64.013887      100.418575
       121   2       0.00       67.231897       68.911009      102.657863
       122   2       0.00       68.856383       69.428675      103.238589
       123   2       0.00       68.252142       67.760388      103.568015
       124   2       0.00        0.859820       67.174082      100.962703
       125   2       0.00        0.954659       68.370517      102.311302
       126   2       0.00        0.267126       66.732992      102.595456
       127   1       0.00       61.949501       21.274241      105.879565
       128   1       0.00       65.940137       18.654039      111.329634
       129   3       0.00       64.762786       18.378990      108.838799
       130   3       0.00       64.248298       19.244445      109.704982
       131   1       0.00       68.080641       21.833075      107.790232
       132   1       0.00       63.314341       21.004347      105.786015
       133   1       0.00       66.729425       22.176280      107.818624
       134   1       0.00       61.131844       20.461699      106.664879
       135   1       0.00       68.559645       20.823213      108.624641
       136   1       0.00       63.863633       19.920411      106.475410
       137   1       0.00       65.855306       21.512216      108.682823
       138   1       0.00       61.674755       19.376022      107.358885
       139   1       0.00       67.690476       20.153189      109.491074
       140   1       0.00       64.318399       16.937960      106.993126
       141   1       0.00       62.720577       17.083938      108.889913
       142   1       0.00       64.716477       20.813507      111.436863
       143   1       0.00       63.055563       19.082816      107.273967
       144   1       0.00       66.317584       20.488994      109.538131
       145   1       0.00       63.707877       17.906707      108.024178
       146   1       0.00       65.314556       19.777796      110.465328
       147   2       0.00       61.525352       22.114441      105.345133
       148   2       0.00       68.756647       22.348202      107.120071
       149   2       0.00       63.949736       21.637018      105.179769
       150   2       0.00       66.356722       22.957244      107.168454
       151   2       0.00       60.072864       20.673915      106.737967
       152   2       0.00       69.608535       20.556700      108.599812
       153   2       0.00       64.927416       19.740872      106.389052
       154   2       0.00       64.810853       21.795780      108.676726
       155   2       0.00       61.000703       18.778866      107.954947
       156   2       0.00       68.109450       19.377690      110.115006
       157   2       0.00       65.088835       17.437222      106.369873
       158   2       0.00       63.530800       16.534888      106.319933
       159   2       0.00       64.814399       16.085775      107.506305
       160   2       0.00       62.248322       17.715114      109.672383
       161   2       0.00       61.919582       16.635671      108.263163
       162   2       0.00       63.256763       16.257933      109.405175
       163   2       0.00       64.189750       21.625715      110.894502
       164   2       0.00       65.514037       21.270177      112.062419
       165   2       0.00       63.972746       20.332570      112.108541
       166   2       0.00       66.381423       17.856207      110.695285
       167   2       0.00       66.732970       19.058382      111.995423
       168   2       0.00       65.162697       18.181777      111.968250
       169   1       0.00       58.703770       44.246034       92.100917
       170   1       0.00       64.219912       42.887503       96.597635
       171   3       0.00       62.143187       42.026426       94.981521
       172   3       0.00       62.701797       43.207342       94.741988
       173   1       0.00       59.560924       44.276326       98.489829
       174   1       0.00       58.552236       43.716522       93.381946
       175   1       0.00       59.624489       44.849801       97.220394
       176   1       0.00       59.815539       43.901029       91.332511
       177   1       0.00       60.635918       43.528465       98.970035
       178   1       0.00       59.510554       42.839450       93.896023
       179   1       0.00       60.763654       44.678627       96.429882
       180   1       0.00       60.779499       43.025026       91.840929
       181   1       0.00       61.778681       43.351604       98.183965
       182   1       0.00       60.991166       40.164231       94.040437
       183   1       0.00       62.887496       41.215586       92.827701
       184   1       0.00       63.700188       45.146315       95.703318
       185   1       0.00       60.642339       42.473851       93.135999
       186   1       0.00       61.864726       43.928324       96.895631
       187   1       0.00       61.677580       41.512660       93.749145
       188   1       0.00       63.094126       43.757729       95.984021
       189   2       0.00       57.960699       44.925572       91.704017
       190   2       0.00       58.677694       44.409555       99.101065
       191   2       0.00       57.691575       43.987105       93.979927
       192   2       0.00       58.788883       45.426952       96.845969
       193   2       0.00       59.932590       44.314642       90.339013
       194   2       0.00       60.584020       43.082292       99.954946
       195   2       0.00       59.369081       42.450860       94.896178
       196   2       0.00       60.780304       45.129598       95.446178
       197   2       0.00       61.622697       42.791031       91.208082
       198   2       0.00       62.582578       42.762440       98.599736
       199   2       0.00       60.146005       40.281018       94.749904
       200   2       0.00       60.601041       39.712486       93.102515
       201   2       0.00       61.710319       39.453498       94.502242
       202   2       0.00       63.446203       42.144185       92.584355
       203   2       0.00       62.558013       40.739717       91.878840
       204   2       0.00       63.594625       40.522472       93.332515
       205   2       0.00       62.971673       45.815995       95.201252
       206   2       0.00       64.025999       45.630202       96.649716
       207   2       0.00       64.580692       45.057597       95.030689
       208   2       0.00       63.861180       41.858963       96.814626
       209   2       0.00       64.602101       43.337032       97.539550
       210   2       0.00       65.070616       42.802068       95.887509
       211   1       0.00       42.888349       18.412067       97.790004
       212   1       0.00       46.212295       16.515098      103.941978
       213   3       0.00       44.483105       18.150583      102.527356
       214   3       0.00       45.445669       17.509268      101.874539
       215   1       0.00       41.955509       13.953147      102.350889
       216   1       0.00       42.230646       17.881381       98.899140
       217   1       0.00       42.545233       14.439787      101.184790
       218   1       0.00       43.984802       19.255421       97.969025
       219   1       0.00       42.548875       14.204666      103.587885
       220   1       0.00       42.666424       18.194744      100.189026
       221   1       0.00       43.730284       15.176598      101.253109
       222   1       0.00       44.427557       19.572295       99.256911
       223   1       0.00       43.734090       14.942592      103.664187
       224   1       0.00       43.074729       20.072845      102.571438
       225   1       0.00       45.464767       20.277509      101.924927
       226   1       0.00       46.735328       15.510086      101.730976
       227   1       0.00       43.771855       19.047913      100.394844
       228   1       0.00       44.350292       15.441382      102.493155
       229   1       0.00       44.222504       19.355615      101.834913
       230   1       0.00       45.649646       16.267547      102.519533
       231   2       0.00       42.549813       18.168269       96.791299
       232   2       0.00       41.037321       13.382683      102.296499
       233   2       0.00       41.382166       17.223826       98.760448
       234   2       0.00       42.082923       14.248051      100.225081
       235   2       0.00       44.495439       19.664870       97.106809
       236   2       0.00       42.088586       13.827838      104.492291
       237   2       0.00       42.140261       17.761547      101.029752
       238   2       0.00       44.159991       15.547299      100.331555
       239   2       0.00       45.281814       20.227391       99.342501
       240   2       0.00       44.152626       15.112168      104.645157
       241   2       0.00       42.159062       19.447161      102.608225
       242   2       0.00       42.823840       21.031210      102.066898
       243   2       0.00       43.363810       20.291996      103.622149
       244   2       0.00       46.344407       19.818150      101.426038
       245   2       0.00       45.263590       21.263912      101.453878
       246   2       0.00       45.737286       20.453325      102.987988
       247   2       0.00       46.434936       15.347857      100.675170
       248   2       0.00       46.936518       14.519521      102.193870
       249   2       0.00       47.682382       16.091856      101.716107
       250   2       0.00       45.487186       17.074581      104.570360
       251   2       0.00       46.454200       15.555084      104.447157
       252   2       0.00       47.143591       17.119262      103.887677
       253   1       0.00       41.726083       56.186362       93.566118
       254   1       0.00       46.951338       57.997187       98.247092
       255   3       0.00       44.422929       58.360897       97.178948
       256   3       0.00       45.364110       57.793161       96.433401
       257   1       0.00       43.803621       53.959030       99.247373
       258   1       0.00       41.631637       56.008793       94.945948
       259   1       0.00       43.841152       54.056271       97.856863
       260   1       0.00       42.406678       57.289805       93.051619
       261   1       0.00       44.537824       54.852388      100.027349
       262   1       0.00       42.215316       56.935185       95.813717
       263   1       0.00       44.614509       55.045157       97.243732
       264   1       0.00       42.994636       58.220301       93.913925
       265   1       0.00       45.312880       55.845605       99.420802
       266   1       0.00       42.429274       59.666997       97.178006
       267   1       0.00       44.299451       60.222761       95.639919
       268   1       0.00       47.258369       56.346777       96.415693
       269   1       0.00       42.906665       58.060721       95.316283
       270   1       0.00       45.367781       55.958510       98.012239
       271   1       0.00       43.543255       59.048673       96.311405
       272   1       0.00       46.196375       57.038474       97.292049
       273   2       0.00       41.273629       55.467770       92.895024
       274   2       0.00       43.203887       53.192595       99.721030
       275   2       0.00       41.106875       55.150555       95.345429
       276   2       0.00       43.268458       53.365595       97.251452
       277   2       0.00       42.480749       57.424982       91.980145
       278   2       0.00       44.505906       54.776703      101.106732
       279   2       0.00       42.131536       56.766250       96.879441
       280   2       0.00       44.617532       55.100112       96.162854
       281   2       0.00       43.512206       59.055887       93.466544
       282   2       0.00       45.860953       56.514034      100.068143
       283   2       0.00       41.876379       58.891214       97.746993
       284   2       0.00       41.702636       60.221372       96.545050
       285   2       0.00       42.860752       60.372429       97.920826
       286   2       0.00       45.133882       59.854569       95.006020
       287   2       0.00       43.614042       60.828862       95.008883
       288   2       0.00       44.736503       60.891220       96.412851
       289   2       0.00       46.793123       55.685587       95.655659
       290   2       0.00       47.943397       55.733675       97.040841
       291   2       0.00       47.861842       57.102043       95.867074
       292   2       0.00       46.246288       58.547983       98.905269
       293   2       0.00       47.670846       57.439214       98.884527
       294   2       0.00       47.522177       58.751233       97.663285
       295   1       0.00       34.323949       10.535272       99.557645
       296   1       0.00       36.853017        8.782467      106.117019
       297   3       0.00       36.509732        8.229990      103.425738
       298   3       0.00       35.650052        9.039008      104.034362
       299   1       0.00       39.485153       12.111741      103.083343
       300   1       0.00       35.679371       10.476416       99.879746
       301   1       0.00       38.151780       12.242494      102.696817
       302   1       0.00       33.430372        9.637719      100.141961
       303   1       0.00       39.830628       11.222071      104.100515
       304   1       0.00       36.144113        9.518758      100.784628
       305   1       0.00       37.161314       11.485896      103.328039
       306   1       0.00       33.887960        8.677538      101.049570
       307   1       0.00       38.845000       10.460446      104.735776
       308   1       0.00       36.829147        6.665543      101.656264
       309   1       0.00       34.739702        6.637470      102.999981
       310   1       0.00       35.369143       10.729015      105.691324
       311   1       0.00       35.259130        8.598482      101.386402
       312   1       0.00       37.486642       10.581278      104.361510
       313   1       0.00       35.816015        7.568193      102.386375
       314   1       0.00       36.362135        9.760693      105.020060
       315   2       0.00       33.965266       11.277839       98.856648
       316   2       0.00       40.251460       12.698337      102.593308
       317   2       0.00       36.372410       11.175291       99.429409
       318   2       0.00       37.883902       12.929963      101.904882
       319   2       0.00       32.378169        9.686175       99.892289
       320   2       0.00       40.866501       11.120367      104.397902
       321   2       0.00       37.200304        9.502776      101.020283
       322   2       0.00       36.136409       11.603895      103.000969
       323   2       0.00       33.156502        8.007333      101.476215
       324   2       0.00       39.163622        9.784494      105.515391
       325   2       0.00       37.673143        7.252954      101.239255
       326   2       0.00       36.337228        6.119052      100.822399
       327   2       0.00       37.263686        5.921425      102.358442
       328   2       0.00       33.976587        7.218440      103.560158
       329   2       0.00       34.227617        6.046132      102.210400
       330   2       0.00       35.208067        5.925500      103.713429
       331   2       0.00       34.919582       11.427756      104.955842
       332   2       0.00       35.877183       11.328069      106.478089
       333   2       0.00       34.533658       10.165747      106.160666
       334   2       0.00       37.566008        8.038059      105.703295
       335   2       0.00       37.351891        9.330729      106.945199
       336   2       0.00       35.994188        8.221234      106.544459
       337   1       0.00       31.347578       58.864088      104.058752
       338   1       0.00       35.040545       62.105729      109.383004
       339   3       0.00       34.604118       59.949670      107.701633
       340   3       0.00       33.595718       60.768841      107.977443
       341   1       0.00       36.033247       63.278111      104.397480
       342   1       0.00       32.670140       59.290211      103.942001
       343   1       0.00       34.699736       62.871021      104.417672
       344   1       0.00       30.881809       58.366460      105.275687
       345   1       0.00       36.771190       63.302619      105.580841
       346   1       0.00       33.529890       59.217384      105.040833
       347   1       0.00       34.101048       62.490043      105.621139
       348   1       0.00       31.736034       58.291979      106.380152
       349   1       0.00       36.179177       62.921298      106.788817
       350   1       0.00       35.232672       57.729663      107.104101
       351   1       0.00       33.440883       58.123292      108.779418
       352   1       0.00       32.948042       63.022087      108.406344
       353   1       0.00       33.081796       58.715054      106.281442
       354   1       0.00       34.827053       62.509281      106.831421
       355   1       0.00       34.062887       58.664489      107.467388
       356   1       0.00       34.127829       62.069876      108.131256
       357   2       0.00       30.682569       58.921295      103.206727
       358   2       0.00       36.495839       63.572765      103.464397
       359   2       0.00       33.030770       59.680014      102.998850
       360   2       0.00       34.127981       62.848216      103.498917
       361   2       0.00       29.854221       58.037995      105.365070
       362   2       0.00       37.806887       63.616989      105.562973
       363   2       0.00       34.548648       59.562601      104.921311
       364   2       0.00       33.066754       62.171833      105.603649
       365   2       0.00       31.327149       57.901561      107.300271
       366   2       0.00       36.793066       62.955356      107.676630
       367   2       0.00       35.775786       58.085741      106.204370
       368   2       0.00       34.864102       56.699718      106.905760
       369   2       0.00       35.969215       57.687185      107.935538
       370   2       0.00       32.594374       58.758706      109.116078
       371   2       0.00       33.073611       57.082733      108.646382
       372   2       0.00       34.199428       58.118961      109.591739
       373   2       0.00       32.209062       63.006484      107.578731
       374   2       0.00       33.308608       64.065946      108.534091
       375   2       0.00       32.410600       62.718469      109.330768
       376   2       0.00       35.911944       61.427049      109.265848
       377   2       0.00       35.414376       63.134884      109.573893
       378   2       0.00       34.475893       61.773013      110.280637
       379   1       0.00       61.695172        1.042621      107.503774
       380   1       0.00       64.953593       67.839265      113.126504
       381   3       0.00       62.667046       68.589899      111.757447
       382   3       0.00       63.786956       69.279513      111.572464
       383   1       0.00       64.482929       65.330297      108.576895
       384   1       0.00       61.672238       69.668178      107.737788
       385   1       0.00       64.502174       66.684733      108.245968
       386   1       0.00       61.680319        1.931679      108.578418
       387   1       0.00       64.589470       64.938554      109.911320
       388   1       0.00       61.632029       69.180260      109.046308
       389   1       0.00       64.630328       67.649663      109.248163
       390   1       0.00       61.641623        1.450695      109.890762
       391   1       0.00       64.716497       65.898650      110.919869
       392   1       0.00       60.284724       68.660261      111.745239
       393   1       0.00       61.595269        0.544669      112.695831
       394   1       0.00       66.162836       69.174213      111.415425
       395   1       0.00       61.613668        0.060678      110.149377
       396   1       0.00       64.742309       67.277043      110.604942
       397   1       0.00       61.580589       69.476097      111.573714
       398   1       0.00       64.870341       68.376650      111.675472
       399   2       0.00       61.726553        1.419210      106.489549
       400   2       0.00       64.383360       64.583852      107.799487
       401   2       0.00       61.687661       68.978000      106.904151