 
         840  atoms
           3  atom types
         860  bonds
           0  angles
           0  dihedrals
           5   bond types
 -2147483648  angle types
 -2147483648  dihedral types
           0  improper types 
 
          0.0000           70.0000  xlo xhi
          0.0000           70.0000  ylo yhi
          0.0000          120.0000  zlo zhi
 
  Atoms
 
     1   3   1     0.300000     9.957100    30.607738   101.337494
     2   3   1     0.060000    10.927368    32.620036   108.229746
     3   3   3    -0.300000    11.866459    31.502294   105.877124
     4   3   3    -0.300000    10.857277    32.364198   105.825577
     5   3   1     0.300000     8.541641    28.117269   107.112256
     6   3   1     0.000000    10.147365    29.713776   102.390591
     7   3   1     0.000000     8.294894    28.942496   106.015671
     8   3   1    -0.180000    10.613767    31.838295   101.342235
     9   3   1    -0.180000     9.289024    28.595331   108.188536
    10   3   1    -0.180000    10.996170    30.047449   103.448938
    11   3   1    -0.180000     8.792816    30.247685   105.994211
    12   3   1    -0.060000    11.463600    32.179757   102.398776
    13   3   1    -0.060000     9.791851    29.899949   108.173449
    14   3   1    -0.060000    13.731783    30.580300   104.714778
    15   3   1    -0.060000    13.248998    33.014193   104.591380
    16   3   1    -0.060000     8.893312    33.166155   106.911977
    17   3   1    -0.060000    11.673309    31.285626   103.474120
    18   3   1    -0.060000     9.549323    30.754142   107.072837
    19   3   1    -0.060000    12.589915    31.613817   104.667303
    20   3   1    -0.060000    10.086772    32.195420   106.999174
    21   3   2     0.060000     9.299060    30.348026   100.518355
    22   3   2     0.060000     8.155484    27.106275   107.127437
    23   3   2     0.060000     9.634908    28.760404   102.389070
    24   3   2     0.060000     7.718232    28.570496   105.178646
    25   3   2     0.060000    10.463303    32.531904   100.524872
    26   3   2     0.060000     9.481321    27.952629   109.038108
    27   3   2     0.060000    11.117798    29.336033   104.255425
    28   3   2     0.060000     8.591043    30.861571   105.126018
    29   3   2     0.060000    11.946714    33.144691   102.357116
    30   3   2     0.060000    10.366285    30.221968   109.029347
    31   3   2     0.060000    13.343382    29.547767   104.834362
    32   3   2     0.060000    14.336260    30.621184   103.782627
    33   3   2     0.060000    14.401565    30.780180   105.579086
    34   3   2     0.060000    12.483820    33.818985   104.569480
    35   3   2     0.060000    13.887146    33.105389   103.685951
    36   3   2     0.060000    13.890165    33.186579   105.482706
    37   3   2     0.060000     8.271305    32.969100   106.014449
    38   3   2     0.060000     8.247542    33.075019   107.812334
    39   3   2     0.060000     9.250619    34.216162   106.838456
    40   3   2     0.060000    11.820945    31.971495   108.350503
    41   3   2     0.060000    10.323062    32.570022   109.161230
    42   3   2     0.060000    11.286436    33.664858   108.108530
    43   4   1     0.300000    54.360075    33.184520   102.991302
    44   4   1     0.060000    58.689333    31.498090   108.550742
    45   4   3    -0.300000    57.551679    30.900847   106.098169
    46   4   3    -0.300000    56.927190    31.744218   106.912247
    47   4   1     0.300000    60.364697    34.695497   104.784426
    48   4   1     0.000000    55.748615    33.096590   102.898534
    49   4   1     0.000000    58.979444    34.853411   104.807213
    50   4   1    -0.180000    53.663408    32.322654   103.838265
    51   4   1    -0.180000    60.979645    33.817684   105.677055
    52   4   1    -0.180000    56.442774    32.145439   103.650438
    53   4   1    -0.180000    58.206903    34.135908   105.723879
    54   4   1    -0.060000    54.351499    31.369223   104.594963
    55   4   1    -0.060000    60.212827    33.095111   106.596277
    56   4   1    -0.060000    57.301160    29.293316   104.356434
    57   4   1    -0.060000    55.704990    29.347104   106.259457
    58   4   1    -0.060000    57.183450    33.473970   108.531768
    59   4   1    -0.060000    55.759063    31.260987   104.512133
    60   4   1    -0.060000    58.807173    33.244011   106.638444
    61   4   1    -0.060000    56.568046    30.236737   105.329459
    62   4   1    -0.060000    57.913562    32.466624   107.622665
    63   4   2     0.060000    53.823619    33.922011   102.408397
    64   4   2     0.060000    60.961927    35.251811   104.073591
    65   4   2     0.060000    56.289834    33.767843   102.244290
    66   4   2     0.060000    58.501614    35.531623   104.112058
    67   4   2     0.060000    52.585659    32.393685   103.910561
    68   4   2     0.060000    62.054960    33.694821   105.656589
    69   4   2     0.060000    57.520787    32.106477   103.562703
    70   4   2     0.060000    57.133554    34.274173   105.712316
    71   4   2     0.060000    53.767113    30.727157   105.237206
    72   4   2     0.060000    60.735662    32.426830   107.264316
    73   4   2     0.060000    57.994264    29.849874   103.692259
    74   4   2     0.060000    56.573418    28.743281   103.720964
    75   4   2     0.060000    57.910355    28.552308   104.918019
    76   4   2     0.060000    55.153944    29.959043   107.004807
    77   4   2     0.060000    54.970293    28.753665   105.673452
    78   4   2     0.060000    56.350440    28.637565   106.820904
    79   4   2     0.060000    56.549154    34.169351   107.944067
    80   4   2     0.060000    57.913595    34.075170   109.116075
    81   4   2     0.060000    56.514477    32.942370   109.242728
    82   4   2     0.060000    59.232907    30.727060   107.964475
    83   4   2     0.060000    59.422060    32.049598   109.178674
    84   4   2     0.060000    57.985667    30.968295   109.228566
    85   5   1     0.300000    63.843576    67.220899    98.663536
    86   5   1     0.060000     0.336028    67.564349   101.861036
    87   5   3    -0.300000    68.660807    66.605670    99.875933
    88   5   3    -0.300000    68.134503    67.010556   101.026174
    89   5   1     0.300000    68.803601     1.337700    98.600839
    90   5   1     0.000000    64.966404    67.811878    98.085278
    91   5   1     0.000000    67.625318     0.812793    99.130465
    92   5   1    -0.180000    63.989303    66.094089    99.472590
    93   5   1    -0.180000     0.036383     0.822060    99.000677
    94   5   1    -0.180000    66.236439    67.276054    98.312893
    95   5   1    -0.180000    67.677511    69.773224   100.062386
    96   5   1    -0.060000    65.257350    65.553149    99.706111
    97   5   1    -0.060000     0.096387    69.780667    99.931800
    98   5   1    -0.060000    68.419844    65.153401    98.001524
    99   5   1    -0.060000    67.885486    64.352598   100.291790
   100   5   1    -0.060000    68.278620    68.578214   102.815653
   101   5   1    -0.060000    66.408188    66.134972    99.125709
   102   5   1    -0.060000    68.913327    69.237236   100.483943
   103   5   1    -0.060000    67.828718    65.587025    99.356816
   104   5   1    -0.060000    68.920399    68.084239   101.504782
   105   5   2     0.060000    62.860307    67.637202    98.486536
   106   5   2     0.060000    68.761670     2.142891    97.878783
   107   5   2     0.060000    64.854012    68.688584    97.460547
   108   5   2     0.060000    66.668405     1.210132    98.817461
   109   5   2     0.060000    63.116742    65.637813    99.922330
   110   5   2     0.060000     0.950014     1.229401    98.586954
   111   5   2     0.060000    67.089399    67.761272    97.856440
   112   5   2     0.060000    66.745864    69.381758   100.449835
   113   5   2     0.060000    65.317610    64.681938   100.341399
   114   5   2     0.060000     1.074435    69.414766   100.207063
   115   5   2     0.060000    68.474540    66.002574    97.289350
   116   5   2     0.060000    67.801538    64.351246    97.543034
   117   5   2     0.060000    69.454726    64.769745    98.133489
   118   5   2     0.060000    67.487756    64.592666   101.300674
   119   5   2     0.060000    67.300079    63.506844    99.870661
   120   5   2     0.060000    68.936426    64.013887   100.418575
   121   5   2     0.060000    67.231897    68.911009   102.657863
   122   5   2     0.060000    68.856383    69.428675   103.238589
   123   5   2     0.060000    68.252142    67.760388   103.568015
   124   5   2     0.060000     0.859820    67.174082   100.962703
   125   5   2     0.060000     0.954659    68.370517   102.311302
   126   5   2     0.060000     0.267126    66.732992   102.595456
   127   6   1     0.300000    61.949501    21.274241   105.879565
   128   6   1     0.060000    65.940137    18.654039   111.329634
   129   6   3    -0.300000    64.762786    18.378990   108.838799
   130   6   3    -0.300000    64.248298    19.244445   109.704982
   131   6   1     0.300000    68.080641    21.833075   107.790232
   132   6   1     0.000000    63.314341    21.004347   105.786015
   133   6   1     0.000000    66.729425    22.176280   107.818624
   134   6   1    -0.180000    61.131844    20.461699   106.664879
   135   6   1    -0.180000    68.559645    20.823213   108.624641
   136   6   1    -0.180000    63.863633    19.920411   106.475410
   137   6   1    -0.180000    65.855306    21.512216   108.682823
   138   6   1    -0.060000    61.674755    19.376022   107.358885
   139   6   1    -0.060000    67.690476    20.153189   109.491074
   140   6   1    -0.060000    64.318399    16.937960   106.993126
   141   6   1    -0.060000    62.720577    17.083938   108.889913
   142   6   1    -0.060000    64.716477    20.813507   111.436863
   143   6   1    -0.060000    63.055563    19.082816   107.273967
   144   6   1    -0.060000    66.317584    20.488994   109.538131
   145   6   1    -0.060000    63.707877    17.906707   108.024178
   146   6   1    -0.060000    65.314556    19.777796   110.465328
   147   6   2     0.060000    61.525352    22.114441   105.345133
   148   6   2     0.060000    68.756647    22.348202   107.120071
   149   6   2     0.060000    63.949736    21.637018   105.179769
   150   6   2     0.060000    66.356722    22.957244   107.168454
   151   6   2     0.060000    60.072864    20.673915   106.737967
   152   6   2     0.060000    69.608535    20.556700   108.599812
   153   6   2     0.060000    64.927416    19.740872   106.389052
   154   6   2     0.060000    64.810853    21.795780   108.676726
   155   6   2     0.060000    61.000703    18.778866   107.954947
   156   6   2     0.060000    68.109450    19.377690   110.115006
   157   6   2     0.060000    65.088835    17.437222   106.369873
   158   6   2     0.060000    63.530800    16.534888   106.319933
   159   6   2     0.060000    64.814399    16.085775   107.506305
   160   6   2     0.060000    62.248322    17.715114   109.672383
   161   6   2     0.060000    61.919582    16.635671   108.263163
   162   6   2     0.060000    63.256763    16.257933   109.405175
   163   6   2     0.060000    64.189750    21.625715   110.894502
   164   6   2     0.060000    65.514037    21.270177   112.062419
   165   6   2     0.060000    63.972746    20.332570   112.108541
   166   6   2     0.060000    66.381423    17.856207   110.695285
   167   6   2     0.060000    66.732970    19.058382   111.995423
   168   6   2     0.060000    65.162697    18.181777   111.968250
   169   7   1     0.300000    58.703770    44.246034    92.100917
   170   7   1     0.060000    64.219912    42.887503    96.597635
   171   7   3    -0.300000    62.143187    42.026426    94.981521
   172   7   3    -0.300000    62.701797    43.207342    94.741988
   173   7   1     0.300000    59.560924    44.276326    98.489829
   174   7   1     0.000000    58.552236    43.716522    93.381946
   175   7   1     0.000000    59.624489    44.849801    97.220394
   176   7   1    -0.180000    59.815539    43.901029    91.332511
   177   7   1    -0.180000    60.635918    43.528465    98.970035
   178   7   1    -0.180000    59.510554    42.839450    93.896023
   179   7   1    -0.180000    60.763654    44.678627    96.429882
   180   7   1    -0.060000    60.779499    43.025026    91.840929
   181   7   1    -0.060000    61.778681    43.351604    98.183965
   182   7   1    -0.060000    60.991166    40.164231    94.040437
   183   7   1    -0.060000    62.887496    41.215586    92.827701
   184   7   1    -0.060000    63.700188    45.146315    95.703318
   185   7   1    -0.060000    60.642339    42.473851    93.135999
   186   7   1    -0.060000    61.864726    43.928324    96.895631
   187   7   1    -0.060000    61.677580    41.512660    93.749145
   188   7   1    -0.060000    63.094126    43.757729    95.984021
   189   7   2     0.060000    57.960699    44.925572    91.704017
   190   7   2     0.060000    58.677694    44.409555    99.101065
   191   7   2     0.060000    57.691575    43.987105    93.979927
   192   7   2     0.060000    58.788883    45.426952    96.845969
   193   7   2     0.060000    59.932590    44.314642    90.339013
   194   7   2     0.060000    60.584020    43.082292    99.954946
   195   7   2     0.060000    59.369081    42.450860    94.896178
   196   7   2     0.060000    60.780304    45.129598    95.446178
   197   7   2     0.060000    61.622697    42.791031    91.208082
   198   7   2     0.060000    62.582578    42.762440    98.599736
   199   7   2     0.060000    60.146005    40.281018    94.749904
   200   7   2     0.060000    60.601041    39.712486    93.102515
   201   7   2     0.060000    61.710319    39.453498    94.502242
   202   7   2     0.060000    63.446203    42.144185    92.584355
   203   7   2     0.060000    62.558013    40.739717    91.878840
   204   7   2     0.060000    63.594625    40.522472    93.332515
   205   7   2     0.060000    62.971673    45.815995    95.201252
   206   7   2     0.060000    64.025999    45.630202    96.649716
   207   7   2     0.060000    64.580692    45.057597    95.030689
   208   7   2     0.060000    63.861180    41.858963    96.814626
   209   7   2     0.060000    64.602101    43.337032    97.539550
   210   7   2     0.060000    65.070616    42.802068    95.887509
   211   8   1     0.300000    42.888349    18.412067    97.790004
   212   8   1     0.060000    46.212295    16.515098   103.941978
   213   8   3    -0.300000    44.483105    18.150583   102.527356
   214   8   3    -0.300000    45.445669    17.509268   101.874539
   215   8   1     0.300000    41.955509    13.953147   102.350889
   216   8   1     0.000000    42.230646    17.881381    98.899140
   217   8   1     0.000000    42.545233    14.439787   101.184790
   218   8   1    -0.180000    43.984802    19.255421    97.969025
   219   8   1    -0.180000    42.548875    14.204666   103.587885
   220   8   1    -0.180000    42.666424    18.194744   100.189026
   221   8   1    -0.180000    43.730284    15.176598   101.253109
   222   8   1    -0.060000    44.427557    19.572295    99.256911
   223   8   1    -0.060000    43.734090    14.942592   103.664187
   224   8   1    -0.060000    43.074729    20.072845   102.571438
   225   8   1    -0.060000    45.464767    20.277509   101.924927
   226   8   1    -0.060000    46.735328    15.510086   101.730976
   227   8   1    -0.060000    43.771855    19.047913   100.394844
   228   8   1    -0.060000    44.350292    15.441382   102.493155
   229   8   1    -0.060000    44.222504    19.355615   101.834913
   230   8   1    -0.060000    45.649646    16.267547   102.519533
   231   8   2     0.060000    42.549813    18.168269    96.791299
   232   8   2     0.060000    41.037321    13.382683   102.296499
   233   8   2     0.060000    41.382166    17.223826    98.760448
   234   8   2     0.060000    42.082923    14.248051   100.225081
   235   8   2     0.060000    44.495439    19.664870    97.106809
   236   8   2     0.060000    42.088586    13.827838   104.492291
   237   8   2     0.060000    42.140261    17.761547   101.029752
   238   8   2     0.060000    44.159991    15.547299   100.331555
   239   8   2     0.060000    45.281814    20.227391    99.342501
   240   8   2     0.060000    44.152626    15.112168   104.645157
   241   8   2     0.060000    42.159062    19.447161   102.608225
   242   8   2     0.060000    42.823840    21.031210   102.066898
   243   8   2     0.060000    43.363810    20.291996   103.622149
   244   8   2     0.060000    46.344407    19.818150   101.426038
   245   8   2     0.060000    45.263590    21.263912   101.453878
   246   8   2     0.060000    45.737286    20.453325   102.987988
   247   8   2     0.060000    46.434936    15.347857   100.675170
   248   8   2     0.060000    46.936518    14.519521   102.193870
   249   8   2     0.060000    47.682382    16.091856   101.716107
   250   8   2     0.060000    45.487186    17.074581   104.570360
   251   8   2     0.060000    46.454200    15.555084   104.447157
   252   8   2     0.060000    47.143591    17.119262   103.887677
   253   9   1     0.300000    41.726083    56.186362    93.566118
   254   9   1     0.060000    46.951338    57.997187    98.247092
   255   9   3    -0.300000    44.422929    58.360897    97.178948
   256   9   3    -0.300000    45.364110    57.793161    96.433401
   257   9   1     0.300000    43.803621    53.959030    99.247373
   258   9   1     0.000000    41.631637    56.008793    94.945948
   259   9   1     0.000000    43.841152    54.056271    97.856863
   260   9   1    -0.180000    42.406678    57.289805    93.051619
   261   9   1    -0.180000    44.537824    54.852388   100.027349
   262   9   1    -0.180000    42.215316    56.935185    95.813717
   263   9   1    -0.180000    44.614509    55.045157    97.243732
   264   9   1    -0.060000    42.994636    58.220301    93.913925
   265   9   1    -0.060000    45.312880    55.845605    99.420802
   266   9   1    -0.060000    42.429274    59.666997    97.178006
   267   9   1    -0.060000    44.299451    60.222761    95.639919
   268   9   1    -0.060000    47.258369    56.346777    96.415693
   269   9   1    -0.060000    42.906665    58.060721    95.316283
   270   9   1    -0.060000    45.367781    55.958510    98.012239
   271   9   1    -0.060000    43.543255    59.048673    96.311405
   272   9   1    -0.060000    46.196375    57.038474    97.292049
   273   9   2     0.060000    41.273629    55.467770    92.895024
   274   9   2     0.060000    43.203887    53.192595    99.721030
   275   9   2     0.060000    41.106875    55.150555    95.345429
   276   9   2     0.060000    43.268458    53.365595    97.251452
   277   9   2     0.060000    42.480749    57.424982    91.980145
   278   9   2     0.060000    44.505906    54.776703   101.106732
   279   9   2     0.060000    42.131536    56.766250    96.879441
   280   9   2     0.060000    44.617532    55.100112    96.162854
   281   9   2     0.060000    43.512206    59.055887    93.466544
   282   9   2     0.060000    45.860953    56.514034   100.068143
   283   9   2     0.060000    41.876379    58.891214    97.746993
   284   9   2     0.060000    41.702636    60.221372    96.545050
   285   9   2     0.060000    42.860752    60.372429    97.920826
   286   9   2     0.060000    45.133882    59.854569    95.006020
   287   9   2     0.060000    43.614042    60.828862    95.008883
   288   9   2     0.060000    44.736503    60.891220    96.412851
   289   9   2     0.060000    46.793123    55.685587    95.655659
   290   9   2     0.060000    47.943397    55.733675    97.040841
   291   9   2     0.060000    47.861842    57.102043    95.867074
   292   9   2     0.060000    46.246288    58.547983    98.905269
   293   9   2     0.060000    47.670846    57.439214    98.884527
   294   9   2     0.060000    47.522177    58.751233    97.663285
   295  10   1     0.300000    34.323949    10.535272    99.557645
   296  10   1     0.060000    36.853017     8.782467   106.117019
   297  10   3    -0.300000    36.509732     8.229990   103.425738
   298  10   3    -0.300000    35.650052     9.039008   104.034362
   299  10   1     0.300000    39.485153    12.111741   103.083343
   300  10   1     0.000000    35.679371    10.476416    99.879746
   301  10   1     0.000000    38.151780    12.242494   102.696817
   302  10   1    -0.180000    33.430372     9.637719   100.141961
   303  10   1    -0.180000    39.830628    11.222071   104.100515
   304  10   1    -0.180000    36.144113     9.518758   100.784628
   305  10   1    -0.180000    37.161314    11.485896   103.328039
   306  10   1    -0.060000    33.887960     8.677538   101.049570
   307  10   1    -0.060000    38.845000    10.460446   104.735776
   308  10   1    -0.060000    36.829147     6.665543   101.656264
   309  10   1    -0.060000    34.739702     6.637470   102.999981
   310  10   1    -0.060000    35.369143    10.729015   105.691324
   311  10   1    -0.060000    35.259130     8.598482   101.386402
   312  10   1    -0.060000    37.486642    10.581278   104.361510
   313  10   1    -0.060000    35.816015     7.568193   102.386375
   314  10   1    -0.060000    36.362135     9.760693   105.020060
   315  10   2     0.060000    33.965266    11.277839    98.856648
   316  10   2     0.060000    40.251460    12.698337   102.593308
   317  10   2     0.060000    36.372410    11.175291    99.429409
   318  10   2     0.060000    37.883902    12.929963   101.904882
   319  10   2     0.060000    32.378169     9.686175    99.892289
   320  10   2     0.060000    40.866501    11.120367   104.397902
   321  10   2     0.060000    37.200304     9.502776   101.020283
   322  10   2     0.060000    36.136409    11.603895   103.000969
   323  10   2     0.060000    33.156502     8.007333   101.476215
   324  10   2     0.060000    39.163622     9.784494   105.515391
   325  10   2     0.060000    37.673143     7.252954   101.239255
   326  10   2     0.060000    36.337228     6.119052   100.822399
   327  10   2     0.060000    37.263686     5.921425   102.358442
   328  10   2     0.060000    33.976587     7.218440   103.560158
   329  10   2     0.060000    34.227617     6.046132   102.210400
   330  10   2     0.060000    35.208067     5.925500   103.713429
   331  10   2     0.060000    34.919582    11.427756   104.955842
   332  10   2     0.060000    35.877183    11.328069   106.478089
   333  10   2     0.060000    34.533658    10.165747   106.160666
   334  10   2     0.060000    37.566008     8.038059   105.703295
   335  10   2     0.060000    37.351891     9.330729   106.945199
   336  10   2     0.060000    35.994188     8.221234   106.544459
   337  11   1     0.300000    31.347578    58.864088   104.058752
   338  11   1     0.060000    35.040545    62.105729   109.383004
   339  11   3    -0.300000    34.604118    59.949670   107.701633
   340  11   3    -0.300000    33.595718    60.768841   107.977443
   341  11   1     0.300000    36.033247    63.278111   104.397480
   342  11   1     0.000000    32.670140    59.290211   103.942001
   343  11   1     0.000000    34.699736    62.871021   104.417672
   344  11   1    -0.180000    30.881809    58.366460   105.275687
   345  11   1    -0.180000    36.771190    63.302619   105.580841
   346  11   1    -0.180000    33.529890    59.217384   105.040833
   347  11   1    -0.180000    34.101048    62.490043   105.621139
   348  11   1    -0.060000    31.736034    58.291979   106.380152
   349  11   1    -0.060000    36.179177    62.921298   106.788817
   350  11   1    -0.060000    35.232672    57.729663   107.104101
   351  11   1    -0.060000    33.440883    58.123292   108.779418
   352  11   1    -0.060000    32.948042    63.022087   108.406344
   353  11   1    -0.060000    33.081796    58.715054   106.281442
   354  11   1    -0.060000    34.827053    62.509281   106.831421
   355  11   1    -0.060000    34.062887    58.664489   107.467388
   356  11   1    -0.060000    34.127829    62.069876   108.131256
   357  11   2     0.060000    30.682569    58.921295   103.206727
   358  11   2     0.060000    36.495839    63.572765   103.464397
   359  11   2     0.060000    33.030770    59.680014   102.998850
   360  11   2     0.060000    34.127981    62.848216   103.498917
   361  11   2     0.060000    29.854221    58.037995   105.365070
   362  11   2     0.060000    37.806887    63.616989   105.562973
   363  11   2     0.060000    34.548648    59.562601   104.921311
   364  11   2     0.060000    33.066754    62.171833   105.603649
   365  11   2     0.060000    31.327149    57.901561   107.300271
   366  11   2     0.060000    36.793066    62.955356   107.676630
   367  11   2     0.060000    35.775786    58.085741   106.204370
   368  11   2     0.060000    34.864102    56.699718   106.905760
   369  11   2     0.060000    35.969215    57.687185   107.935538
   370  11   2     0.060000    32.594374    58.758706   109.116078
   371  11   2     0.060000    33.073611    57.082733   108.646382
   372  11   2     0.060000    34.199428    58.118961   109.591739
   373  11   2     0.060000    32.209062    63.006484   107.578731
   374  11   2     0.060000    33.308608    64.065946   108.534091
   375  11   2     0.060000    32.410600    62.718469   109.330768
   376  11   2     0.060000    35.911944    61.427049   109.265848
   377  11   2     0.060000    35.414376    63.134884   109.573893
   378  11   2     0.060000    34.475893    61.773013   110.280637
   379  12   1     0.300000    61.695172     1.042621   107.503774
   380  12   1     0.060000    64.953593    67.839265   113.126504
   381  12   3    -0.300000    62.667046    68.589899   111.757447
   382  12   3    -0.300000    63.786956    69.279513   111.572464
   383  12   1     0.300000    64.482929    65.330297   108.576895
   384  12   1     0.000000    61.672238    69.668178   107.737788
   385  12   1     0.000000    64.502174    66.684733   108.245968
   386  12   1    -0.180000    61.680319     1.931679   108.578418
   387  12   1    -0.180000    64.589470    64.938554   109.911320
   388  12   1    -0.180000    61.632029    69.180260   109.046308
   389  12   1    -0.180000    64.630328    67.649663   109.248163
   390  12   1    -0.060000    61.641623     1.450695   109.890762
   391  12   1    -0.060000    64.716497    65.898650   110.919869
   392  12   1    -0.060000    60.284724    68.660261   111.745239
   393  12   1    -0.060000    61.595269     0.544669   112.695831
   394  12   1    -0.060000    66.162836    69.174213   111.415425
   395  12   1    -0.060000    61.613668     0.060678   110.149377
   396  12   1    -0.060000    64.742309    67.277043   110.604942
   397  12   1    -0.060000    61.580589    69.476097   111.573714
   398  12   1    -0.060000    64.870341    68.376650   111.675472
   399  12   2     0.060000    61.726553     1.419210   106.489549
   400  12   2     0.060000    64.383360    64.583852   107.799487
   401  12   2     0.060000    61.687661    68.978000   106.904151
   402  12   2     0.060000    64.415629    66.989145   107.210895
   403  12   2     0.060000    61.700216     2.998335   108.394935
   404  12   2     0.060000    64.572305    63.886715   110.166579
   405  12   2     0.060000    61.622532    68.108446   109.196143
   406  12   2     0.060000    64.634591    68.693090   108.960815
   407  12   2     0.060000    61.633901     2.179200   110.687915
   408  12   2     0.060000    64.793280    65.544729   111.937255
   409  12   2     0.060000    60.226722    67.827354   111.014363
   410  12   2     0.060000    59.392310    69.308964   111.608302
   411  12   2     0.060000    60.240817    68.208834   112.760066
   412  12   2     0.060000    62.513810     1.167244   112.647357
   413  12   2     0.060000    60.709215     1.211629   112.622181
   414  12   2     0.060000    61.575276     0.055303   113.693526
   415  12   2     0.060000    66.154857    69.649233   110.412644
   416  12   2     0.060000    67.052554    68.510884   111.481510
   417  12   2     0.060000    66.273814    69.989435   112.162877
   418  12   2     0.060000    64.043436    67.262169   113.395283
   419  12   2     0.060000    65.841856    67.184292   113.258218
   420  12   2     0.060000    65.038903    68.682915   113.845011
   421  13   1     0.300000    67.639695    50.202484    95.378467
   422  13   1     0.060000     3.530861    48.683768    99.313127
   423  13   3    -0.300000     1.663576    50.482844    98.342232
   424  13   3    -0.300000     1.334465    49.199947    98.441463
   425  13   1     0.300000     3.901078    49.292590    94.145181
   426  13   1     0.000000    68.924238    50.640810    95.058778
   427  13   1     0.000000     2.597053    48.851755    94.367813
   428  13   1    -0.180000    67.253675    50.094864    96.714472
   429  13   1    -0.180000     4.771378    49.462592    95.221835
   430  13   1    -0.180000    69.824187    50.974521    96.073979
   431  13   1    -0.180000     2.161612    48.577879    95.666769
   432  13   1    -0.060000    68.149426    50.425637    97.735898
   433  13   1    -0.060000     4.342180    49.191918    96.524761
   434  13   1    -0.060000     0.865701    52.728676    98.356095
   435  13   1    -0.060000    69.968215    51.063563    99.966704
   436  13   1    -0.060000     2.098317    46.949733    98.258099
   437  13   1    -0.060000    69.455191    50.876105    97.432799
   438  13   1    -0.060000     3.025095    48.739992    96.771464
   439  13   1    -0.060000     0.484959    51.244288    98.517042
   440  13   1    -0.060000     2.496854    48.436412    98.185806
   441  13   2     0.060000    66.943612    49.944072    94.590971
   442  13   2     0.060000     4.237000    49.504608    93.138374