Generated with NewCompositeBuilder      15000 Polymer Atoms          0 Ceramic Atoms 

     15000 atoms 
     0 impropers
***      atom types

          0.0000          100.0000  xlo xhi
          0.0000          100.0000  ylo yhi
          0.0000          100.0000  zlo zhi

Atoms

         1   1       0.00       31.757385       99.083061       22.031088
         2   1       0.00       33.215354       98.769847       21.678304
         3   3       0.00       34.476656       98.483120       21.387077
         4   1       0.00       34.858510       99.331194       20.440055
         5   1       0.00       35.321409        0.298748       19.346113
         6   2       0.00       31.412251       99.899771       21.431303
         7   2       0.00       31.689301       99.346639       23.065988
         8   2       0.00       31.151446       98.221468       21.842347
         9   2       0.00       33.484999       99.786984       21.871201
        10   2       0.00       32.942479       97.756286       21.470349
        11   2       0.00       34.568774        0.156428       21.055588
        12   2       0.00       35.135780       98.504449       19.819200
        13   2       0.00       35.169353        1.305767       19.674140
        14   2       0.00       34.756786        0.125304       18.454586
        15   2       0.00       36.361318        0.141776       19.147667
        16   1       0.00       34.284632        2.138316       53.749552
        17   1       0.00       35.293436        3.124945       54.347139
        18   3       0.00       36.159920        3.993191       54.850392
        19   1       0.00       36.817947        3.367586       55.818644
        20   1       0.00       37.591296        2.665898       56.939674
        21   2       0.00       34.361069        1.198460       54.256212
        22   2       0.00       33.294187        2.526571       53.865323
        23   2       0.00       34.493743        2.000226       52.709200
        24   2       0.00       34.887476        2.955924       55.322389
        25   2       0.00       35.709476        3.281944       53.373859
        26   2       0.00       35.892353        3.116920       56.292226
        27   2       0.00       37.743390        3.607242       55.337015
        28   2       0.00       36.900897        2.275246       57.657692
        29   2       0.00       38.168124        1.865136       56.527664
        30   2       0.00       38.242915        3.367928       57.417145
        31   1       0.00       31.773183       67.051920       17.656541
        32   1       0.00       30.793097       67.279640       16.500769
        33   3       0.00       29.930340       67.466084       15.511428
        34   1       0.00       30.554635       68.178291       14.581421
        35   1       0.00       31.254271       69.000685       13.494535
        36   2       0.00       32.708645       67.519966       17.429123
        37   2       0.00       31.924037       66.001571       17.794874
        38   2       0.00       31.371784       67.475315       18.553616
        39   2       0.00       31.499532       66.862823       15.813967
        40   2       0.00       30.092946       67.710820       17.185520
        41   2       0.00       31.341452       67.454632       14.548639
        42   2       0.00       29.773507       68.908931       14.624447
        43   2       0.00       32.155022       68.505227       13.197926
        44   2       0.00       31.490796       69.970521       13.878173
        45   2       0.00       30.606166       69.098501       12.648471
        46   1       0.00       36.916358       50.597940       51.876450
        47   1       0.00       37.068365       51.307368       53.226206
        48   3       0.00       37.180023       51.916028       54.398798
        49   1       0.00       38.403546       52.427583       54.455328
        50   1       0.00       39.810377       53.027850       54.542805
        51   2       0.00       37.825826       50.690940       51.319588
        52   2       0.00       36.702254       49.562262       52.039714
        53   2       0.00       36.114614       51.045029       51.326499
        54   2       0.00       37.941343       50.726411       53.438058
        55   2       0.00       36.204258       51.899289       53.007207
        56   2       0.00       38.820815       51.464674       54.249095
        57   2       0.00       37.984765       53.393607       54.648370
        58   2       0.00       40.536186       52.258370       54.381838
        59   2       0.00       39.921995       53.784884       53.795715
        60   2       0.00       39.955366       53.457320       55.512323
        61   1       0.00        1.521624       70.709108       86.082124
        62   1       0.00        1.546211       69.462289       86.972670
        63   3       0.00        1.546428       68.383649       87.743671
        64   1       0.00        2.814938       68.039240       87.928493
        65   1       0.00        4.271557       67.621978       88.154984
        66   2       0.00        2.524044       70.989403       85.832194
        67   2       0.00        1.046532       71.512380       86.605734
        68   2       0.00        0.977071       70.496825       85.185728
        69   2       0.00        2.198563       69.960154       87.659001
        70   2       0.00        0.906302       68.959199       86.278099
        71   2       0.00        3.034052       69.021787       88.289642
        72   2       0.00        2.597862       67.060107       87.554298
        73   2       0.00        4.818833       68.446664       88.561421
        74   2       0.00        4.707559       67.329518       87.223280
        75   2       0.00        4.304892       66.800069       88.839664
        76   1       0.00       12.715196       33.003106       80.565525
        77   1       0.00       11.804379       34.211862       80.805432
        78   3       0.00       11.006804       35.253976       80.994589
        79   1       0.00       11.326636       35.778680       82.171147
        80   1       0.00       11.677552       36.401016       83.526396
        81   2       0.00       13.376295       32.882998       81.398830
        82   2       0.00       13.288017       33.158984       79.675186
        83   2       0.00       12.117667       32.122272       80.454994
        84   2       0.00       12.661796       34.832440       80.961010
        85   2       0.00       10.946682       33.587595       80.665227
        86   2       0.00       12.346319       35.865730       81.860492
        87   2       0.00       10.308504       35.678828       82.486238
        88   2       0.00       12.719798       36.641974       83.548103
        89   2       0.00       11.456685       35.703830       84.306686
        90   2       0.00       11.102663       37.292379       83.669243
        91   1       0.00       19.155887       33.351293       11.267808
        92   1       0.00       18.244190       34.238843       10.413819
        93   3       0.00       17.438677       34.999564        9.685561
        94   1       0.00       18.200687       35.646169        8.811984
        95   1       0.00       19.059800       36.402804        7.793862
        96   2       0.00       20.171020       33.471661       10.950174
        97   2       0.00       19.067852       33.634074       12.296112
        98   2       0.00       18.865967       32.327533       11.153840
        99   2       0.00       18.834247       35.094856       10.665929
       100   2       0.00       17.663468       33.379890       10.149292
       101   2       0.00       18.804575       36.022789        9.610305
       102   2       0.00       17.603981       35.258011        8.012534
       103   2       0.00       19.824183       36.947088        8.307945
       104   2       0.00       19.510758       35.705605        7.119878
       105   2       0.00       18.444509       37.084977        7.244782
       106   1       0.00       55.222278       35.724645       51.191236
       107   1       0.00       56.198404       36.268616       50.142662
       108   3       0.00       57.026812       36.748128       49.225211
       109   1       0.00       58.246704       36.340344       49.553038
       110   1       0.00       59.663640       35.880603       49.910913
       111   2       0.00       55.761586       35.155783       51.920220
       112   2       0.00       54.724205       36.540458       51.672379
       113   2       0.00       54.498709       35.097225       50.713825
       114   2       0.00       56.783562       36.720745       50.915743
       115   2       0.00       55.621588       35.803120       49.370906
       116   2       0.00       58.133520       36.768815       50.526403
       117   2       0.00       58.354142       35.900041       48.583277
       118   2       0.00       59.895927       36.187860       50.909134
       119   2       0.00       59.720149       34.814762       49.843901
       120   2       0.00       60.363663       36.319824       49.230849
       121   1       0.00       63.721108       21.117921       21.204890
       122   1       0.00       64.908027       22.031739       21.527989
       123   3       0.00       65.921763       22.838721       21.809103
       124   1       0.00       67.024830       22.101027       21.778347
       125   1       0.00       68.311500       21.269959       21.747508
       126   2       0.00       64.073275       20.121330       21.035598
       127   2       0.00       63.035551       21.119348       22.026556
       128   2       0.00       63.224909       21.474453       20.326368
       129   2       0.00       65.201859       21.376759       22.321178
       130   2       0.00       64.622929       22.678434       20.724549
       131   2       0.00       66.597109       21.423392       22.486657
       132   2       0.00       67.447063       22.772264       21.059316
       133   2       0.00       68.216391       20.441894       22.418382
       134   2       0.00       68.477951       20.907376       20.755274
       135   2       0.00       69.137533       21.879954       22.049181
       136   1       0.00       27.960364       24.451066       46.867901
       137   1       0.00       27.746079       25.474616       47.988017
       138   3       0.00       27.542126       26.365405       48.948645
       139   1       0.00       28.588991       26.304789       49.762460
       140   1       0.00       29.786633       26.251912       50.716400
       141   2       0.00       28.891907       23.945843       47.019073
       142   2       0.00       27.976249       24.953735       45.923339
       143   2       0.00       27.162537       23.737984       46.878543
       144   2       0.00       28.692272       25.921822       47.766182
       145   2       0.00       26.806839       25.017371       48.219895
       146   2       0.00       29.247194       26.469846       48.935802
       147   2       0.00       27.930479       26.126221       50.587276
       148   2       0.00       30.689165       26.408227       50.163400
       149   2       0.00       29.821454       25.294724       51.192091
       150   2       0.00       29.686071       27.016962       51.458032
       151   1       0.00       19.532100       87.996090       79.674308
       152   1       0.00       20.378044       88.378954       80.893336
       153   3       0.00       21.108007       88.690568       81.955389
       154   1       0.00       21.463469       89.962486       81.822105
       155   1       0.00       21.886847       91.428868       81.689365
       156   2       0.00       19.439521       88.841338       79.024032
       157   2       0.00       18.560110       87.686350       79.997452
       158   2       0.00       20.005657       87.192858       79.149246
       159   2       0.00       19.721883       89.199134       81.096415
       160   2       0.00       21.042989       87.567961       80.680851
       161   2       0.00       20.437400       90.242397       81.709539
       162   2       0.00       22.491164       89.679941       81.921390
       163   2       0.00       21.017662       92.040303       81.564968
       164   2       0.00       22.525352       91.539922       80.838671
       165   2       0.00       22.411105       91.730181       82.572425
       166   1       0.00       62.661066       18.808156       65.395755
       167   1       0.00       64.033488       19.275877       64.899842
       168   3       0.00       65.211418       19.693263       64.456926
       169   1       0.00       66.138698       19.037084       65.143566
       170   1       0.00       67.226610       18.290995       65.922631
       171   2       0.00       62.790021       18.074916       66.164913
       172   2       0.00       62.119027       19.643885       65.786748
       173   2       0.00       62.114873       18.378532       64.581984
       174   2       0.00       64.314316       19.527299       65.901045
       175   2       0.00       63.758042       19.009730       63.900690
       176   2       0.00       65.702176       19.370779       66.061136
       177   2       0.00       66.567084       18.692481       64.225100
       178   2       0.00       67.079023       18.440639       66.971742
       179   2       0.00       67.171274       17.246354       65.700447
       180   2       0.00       68.188367       18.666612       65.640907
       181   1       0.00       92.753304       67.245660       52.656531
       182   1       0.00       93.255419       66.465436       53.876107
       183   3       0.00       93.670962       65.792634       54.940329
       184   1       0.00       94.941105       65.472636       54.725310
       185   1       0.00       96.408091       65.092891       54.499725
       186   2       0.00       93.544367       67.338446       51.941350
       187   2       0.00       91.930758       66.724188       52.213123
       188   2       0.00       92.433897       68.219971       52.962841
       189   2       0.00       93.561583       65.661021       53.240761
       190   2       0.00       92.963348       67.276795       54.509670
       191   2       0.00       94.672108       65.006149       53.801260
       192   2       0.00       95.211467       65.951465       55.643718
       193   2       0.00       96.498349       64.551787       53.581101
       194   2       0.00       97.002525       65.980533       54.450301
       195   2       0.00       96.746459       64.479870       55.309135
       196   1       0.00       85.652227       11.827713       48.843053
       197   1       0.00       85.323527       10.401393       48.389397
       198   3       0.00       85.021281        9.174365       47.988205
       199   1       0.00       85.995728        8.377516       48.409369
       200   1       0.00       87.108250        7.438248       48.886039
       201   2       0.00       86.576901       11.826875       49.382360
       202   2       0.00       85.739196       12.463491       47.986695
       203   2       0.00       84.870146       12.189667       49.477455
       204   2       0.00       86.276520       10.330153       47.908551
       205   2       0.00       84.376793       10.467263       48.883732
       206   2       0.00       86.718906        8.995828       47.920962
       207   2       0.00       85.272657        7.766637       48.909209
       208   2       0.00       88.051598        7.792857       48.526656
       209   2       0.00       87.120528        7.413937       49.955132
       210   2       0.00       86.930111        6.453184       48.507428
       211   1       0.00        6.695529       50.123864       13.126615
       212   1       0.00        6.614160       51.428585       13.926187
       213   3       0.00        6.540428       52.546298       14.635544
       214   1       0.00        6.697773       53.555099       13.787335
       215   1       0.00        6.875959       54.735476       12.827073
       216   2       0.00        6.856817       50.348150       12.092421
       217   2       0.00        7.506722       49.530296       13.493723
       218   2       0.00        5.779595       49.581197       13.234809
       219   2       0.00        7.564448       51.730436       13.538471
       220   2       0.00        5.656572       51.133433       14.301582
       221   2       0.00        7.619661       53.132238       13.448001
       222   2       0.00        5.768352       53.970749       14.117879
       223   2       0.00        7.794231       54.621620       12.289838
       224   2       0.00        6.059734       54.759537       12.136494
       225   2       0.00        6.900246       55.648592       13.384803
       226   1       0.00       76.735606       33.006524       51.581459
       227   1       0.00       77.415696       33.689490       52.772790
       228   3       0.00       77.988292       34.294269       53.804431
       229   1       0.00       79.124951       33.653407       54.047732
       230   1       0.00       80.441940       32.930004       54.346686
       231   2       0.00       77.340820       32.190495       51.244284
       232   2       0.00       75.776055       32.639295       51.880678
       233   2       0.00       76.614722       33.712635       50.786524
       234   2       0.00       77.466200       32.752495       53.286576
       235   2       0.00       77.379183       34.623657       52.252204
       236   2       0.00       78.592403       32.729371       54.127655
       237   2       0.00       79.658941       34.576428       53.954285
       238   2       0.00       80.248399       31.889757       54.505543
       239   2       0.00       81.108353       33.046022       53.518353
       240   2       0.00       80.887016       33.347972       55.225687
       241   1       0.00       16.906822       67.252272       23.925632
       242   1       0.00       17.989614       66.743782       22.967909
       243   3       0.00       18.925984       66.285114       22.148921
       244   1       0.00       19.251533       67.281828       21.334997
       245   1       0.00       19.644481       68.417694       20.384974
       246   2       0.00       16.684672       68.275440       23.702805
       247   2       0.00       16.022004       66.661652       23.809907
       248   2       0.00       17.257193       67.175207       24.933813
       249   2       0.00       17.393705       67.039826       22.130213
       250   2       0.00       18.592197       66.462065       23.806086
       251   2       0.00       18.225748       67.393464       21.053677
       252   2       0.00       20.276133       67.178410       21.627137
       253   2       0.00       18.771145       68.782166       19.885722
       254   2       0.00       20.092454       69.211429       20.944443
       255   2       0.00       20.342357       68.051747       19.660761
       256   1       0.00       84.664637       72.772279       40.529728
       257   1       0.00       84.647272       73.068078       39.026253
       258   3       0.00       84.611630       73.328135       37.726635
       259   1       0.00       85.847835       73.178267       37.267037
       260   1       0.00       87.266895       73.012295       36.713984
       261   2       0.00       85.660108       72.521352       40.832956
       262   2       0.00       84.010235       71.952032       40.739676
       263   2       0.00       84.335738       73.637021       41.067477
       264   2       0.00       85.091833       72.115153       38.829313
       265   2       0.00       84.217038       74.027528       39.224656
       266   2       0.00       85.882331       72.187812       37.669091
       267   2       0.00       85.817547       74.174503       36.876598
       268   2       0.00       87.629190       72.033970       36.951534
       269   2       0.00       87.908753       73.746335       37.153196
       270   2       0.00       87.252706       73.138757       35.651328
       271   1       0.00       30.816146       72.421851       67.943031
       272   1       0.00       31.603037       72.353163       66.629898
       273   3       0.00       32.274581       72.275353       65.489336
       274   1       0.00       33.051997       73.349181       65.422920
       275   1       0.00       33.958666       74.580223       65.324779
       276   2       0.00       31.086924       73.310002       68.475706
       277   2       0.00       29.767549       72.439103       67.730257
       278   2       0.00       31.044186       71.564272       68.541097
       279   2       0.00       31.245294       73.324518       66.359761
       280   2       0.00       31.973128       71.388287       66.907490
       281   2       0.00       32.200154       73.980438       65.563335
       282   2       0.00       33.905921       72.716313       65.295887
       283   2       0.00       33.366980       75.466483       65.421007
       284   2       0.00       34.686028       74.550581       66.108212
       285   2       0.00       34.454056       74.583734       64.376091
       286   1       0.00        2.112426        1.975620       30.318746
       287   1       0.00        0.932887        2.803393       30.840007
       288   3       0.00       99.905555        3.522104       31.271226
       289   1       0.00       99.993360        3.568990       32.594852
       290   1       0.00        0.073453        3.636042       34.123326
       291   2       0.00        2.708041        1.643465       31.143847
       292   2       0.00        2.710301        2.577549       29.666555
       293   2       0.00        1.743196        1.127000       29.781492
       294   2       0.00        1.609482        3.445487       31.363857
       295   2       0.00        0.255517        2.151682       30.328683
       296   2       0.00        0.989582        3.950797       32.520001
       297   2       0.00       99.001169        3.174167       32.669140
       298   2       0.00        1.027446        4.024410       34.412940
       299   2       0.00       99.949791        2.654760       34.530137
       300   2       0.00       99.300458        4.277155       34.493307
       301   1       0.00       66.775347       68.724766       86.780251
       302   1       0.00       67.511717       67.523797       86.177203
       303   3       0.00       68.130726       66.478036       85.646998
       304   1       0.00       69.404091       66.553948       86.013973
       305   1       0.00       70.878247       66.620041       86.425851
       306   2       0.00       67.464209       69.320445       87.342844
       307   2       0.00       66.352050       69.315163       85.994518
       308   2       0.00       65.995002       68.377932       87.425151
       309   2       0.00       68.219349       68.182380       85.718933
       310   2       0.00       66.812975       66.864540       86.648531
       311   2       0.00       69.466372       67.542484       85.610543
       312   2       0.00       69.337275       65.569722       86.429522
       313   2       0.00       71.288218       67.563224       86.130659
       314   2       0.00       70.956953       66.513748       87.487081
       315   2       0.00       71.418537       65.830690       85.945807
       316   1       0.00       22.950657       72.843562       60.634659
       317   1       0.00       24.347970       72.867377       61.263294
       318   3       0.00       25.553856       72.868442       61.814425
       319   1       0.00       26.094312       74.054377       61.562716
       320   1       0.00       26.738165       75.416613       61.285384
       321   2       0.00       22.759215       73.780634       60.153908
       322   2       0.00       22.897226       72.054956       59.913291
       323   2       0.00       22.218738       72.678541       61.397673
       324   2       0.00       24.773231       73.133157       60.318307
       325   2       0.00       23.920523       72.616870       62.211738
       326   2       0.00       25.924904       73.914729       60.515989
       327   2       0.00       26.251328       74.199290       62.611617
       328   2       0.00       26.742039       75.600354       60.231329
       329   2       0.00       26.178070       76.182626       61.778557
       330   2       0.00       27.744079       75.416817       61.650856
       331   1       0.00       37.178636       47.471560       42.330701
       332   1       0.00       37.126162       48.921522       41.837656
       333   3       0.00       37.059718       50.175316       41.411639
       334   1       0.00       38.307485       50.589441       41.228678
       335   1       0.00       39.738984       51.089233       41.009219
       336   2       0.00       38.198844       47.155766       42.403680
       337   2       0.00       36.714735       47.404697       43.292705
       338   2       0.00       36.658969       46.840651       41.640030
       339   2       0.00       37.771349       49.221066       42.636713
       340   2       0.00       36.493504       48.618960       41.029441
       341   2       0.00       38.549192       50.321142       42.235371
       342   2       0.00       38.068401       50.845269       40.217126
       343   2       0.00       40.301076       50.966070       41.911269
       344   2       0.00       40.196942       50.525519       40.224233
       345   2       0.00       39.718023       52.125120       40.741020
       346   1       0.00        1.372062       68.093838       51.331067
       347   1       0.00        1.957296       68.937805       50.193765
       348   3       0.00        2.445270       69.678161       49.208036
       349   1       0.00        3.692790       69.274799       49.000941
       350   1       0.00        5.134564       68.825416       48.743090
       351   2       0.00        2.107568       67.394875       51.672178
       352   2       0.00        1.085920       68.733778       52.139599
       353   2       0.00        0.513515       67.562760       50.976130
       354   2       0.00        2.779152       69.217832       50.818762
       355   2       0.00        1.143370       68.645019       49.563835
       356   2       0.00        3.922726       69.440887       50.032145
       357   2       0.00        3.458312       69.096035       47.971907
       358   2       0.00        5.694960       68.888599       49.652360
       359   2       0.00        5.135776       67.814809       48.393272
       360   2       0.00        5.579614       69.460309       48.005341
       361   1       0.00       32.194469       55.804403       15.091435
       362   1       0.00       31.262719       56.567778       14.144158
       363   3       0.00       30.439990       57.221550       13.335699
       364   1       0.00       31.189610       57.805142       12.408670
       365   1       0.00       32.034195       58.487251       11.327676
       366   2       0.00       33.208668       55.929743       14.772742
       367   2       0.00       32.083085       56.185245       16.085256
       368   2       0.00       31.942858       54.764381       15.078243
       369   2       0.00       31.818466       57.465909       14.314428
       370   2       0.00       30.716569       55.665826       13.961915
       371   2       0.00       31.769265       58.281796       13.170667
       372   2       0.00       30.617559       57.317168       11.646775
       373   2       0.00       32.771906       59.108084       11.791526
       374   2       0.00       32.518484       57.743209       10.731380
       375   2       0.00       31.402044       59.087875       10.707139
       376   1       0.00       25.375727       75.595133       16.511520
       377   1       0.00       26.813299       75.217560       16.138616
       378   3       0.00       28.056691       74.875608       15.830474
       379   1       0.00       28.463066       75.706916       14.878801
       380   1       0.00       28.954466       76.655486       13.780673
       381   2       0.00       25.059731       76.428027       15.917964
       382   2       0.00       24.729323       74.761883       16.329913
       383   2       0.00       25.333436       75.859581       17.547574
       384   2       0.00       26.526995       75.124109       15.112078
       385   2       0.00       27.102723       75.326365       17.163022
       386   2       0.00       27.614935       75.445752       14.281889
       387   2       0.00       29.304510       75.977866       15.482460
       388   2       0.00       28.277119       76.622946       12.953055
       389   2       0.00       28.999934       77.652474       14.164925
       390   2       0.00       29.928177       76.351888       13.456408
       391   1       0.00       18.008910       59.422171       51.492678
       392   1       0.00       19.446408       59.243521       50.992761
       393   3       0.00       20.687765       59.068053       50.561311
       394   1       0.00       21.211897       60.274964       50.386537
       395   1       0.00       21.838460       61.657438       50.178383
       396   2       0.00       17.787010       60.466008       51.576580
       397   2       0.00       17.331190       58.967840       50.800287
       398   2       0.00       17.903883       58.957503       52.450896
       399   2       0.00       19.233438       59.862110       50.146311
       400   2       0.00       19.663526       58.637657       51.847629
       401   2       0.00       20.397585       60.541104       49.746299