
       15000  atoms
           3  atom types
       14000  bonds
           0  angles
           0  dihedrals
           4   bond types
 -2147483648  angle types
 -2147483648  dihedral types
           0  improper types 

          0.0000          100.0000  xlo xhi
          0.0000          100.0000  ylo yhi
          0.0000          100.0000  zlo zhi

  Atoms

     1   3   1     0.000000    31.757385    99.083061    22.031088
     2   3   1     0.000000    33.215354    98.769847    21.678304
     3   3   3     0.000000    34.476656    98.483120    21.387077
     4   3   1     0.000000    34.858510    99.331194    20.440055
     5   3   1     0.000000    35.321409     0.298748    19.346113
     6   3   2     0.000000    31.412251    99.899771    21.431303
     7   3   2     0.000000    31.689301    99.346639    23.065988
     8   3   2     0.000000    31.151446    98.221468    21.842347
     9   3   2     0.000000    33.484999    99.786984    21.871201
    10   3   2     0.000000    32.942479    97.756286    21.470349
    11   3   2     0.000000    34.568774     0.156428    21.055588
    12   3   2     0.000000    35.135780    98.504449    19.819200
    13   3   2     0.000000    35.169353     1.305767    19.674140
    14   3   2     0.000000    34.756786     0.125304    18.454586
    15   3   2     0.000000    36.361318     0.141776    19.147667
    16   4   1     0.000000    34.284632     2.138316    53.749552
    17   4   1     0.000000    35.293436     3.124945    54.347139
    18   4   3     0.000000    36.159920     3.993191    54.850392
    19   4   1     0.000000    36.817947     3.367586    55.818644
    20   4   1     0.000000    37.591296     2.665898    56.939674
    21   4   2     0.000000    34.361069     1.198460    54.256212
    22   4   2     0.000000    33.294187     2.526571    53.865323
    23   4   2     0.000000    34.493743     2.000226    52.709200
    24   4   2     0.000000    34.887476     2.955924    55.322389
    25   4   2     0.000000    35.709476     3.281944    53.373859
    26   4   2     0.000000    35.892353     3.116920    56.292226
    27   4   2     0.000000    37.743390     3.607242    55.337015
    28   4   2     0.000000    36.900897     2.275246    57.657692
    29   4   2     0.000000    38.168124     1.865136    56.527664
    30   4   2     0.000000    38.242915     3.367928    57.417145
    31   5   1     0.000000    31.773183    67.051920    17.656541
    32   5   1     0.000000    30.793097    67.279640    16.500769
    33   5   3     0.000000    29.930340    67.466084    15.511428
    34   5   1     0.000000    30.554635    68.178291    14.581421
    35   5   1     0.000000    31.254271    69.000685    13.494535
    36   5   2     0.000000    32.708645    67.519966    17.429123
    37   5   2     0.000000    31.924037    66.001571    17.794874
    38   5   2     0.000000    31.371784    67.475315    18.553616
    39   5   2     0.000000    31.499532    66.862823    15.813967
    40   5   2     0.000000    30.092946    67.710820    17.185520
    41   5   2     0.000000    31.341452    67.454632    14.548639
    42   5   2     0.000000    29.773507    68.908931    14.624447
    43   5   2     0.000000    32.155022    68.505227    13.197926
    44   5   2     0.000000    31.490796    69.970521    13.878173
    45   5   2     0.000000    30.606166    69.098501    12.648471
    46   6   1     0.000000    36.916358    50.597940    51.876450
    47   6   1     0.000000    37.068365    51.307368    53.226206
    48   6   3     0.000000    37.180023    51.916028    54.398798
    49   6   1     0.000000    38.403546    52.427583    54.455328
    50   6   1     0.000000    39.810377    53.027850    54.542805
    51   6   2     0.000000    37.825826    50.690940    51.319588
    52   6   2     0.000000    36.702254    49.562262    52.039714
    53   6   2     0.000000    36.114614    51.045029    51.326499
    54   6   2     0.000000    37.941343    50.726411    53.438058
    55   6   2     0.000000    36.204258    51.899289    53.007207
    56   6   2     0.000000    38.820815    51.464674    54.249095
    57   6   2     0.000000    37.984765    53.393607    54.648370
    58   6   2     0.000000    40.536186    52.258370    54.381838
    59   6   2     0.000000    39.921995    53.784884    53.795715
    60   6   2     0.000000    39.955366    53.457320    55.512323
    61   7   1     0.000000     1.521624    70.709108    86.082124
    62   7   1     0.000000     1.546211    69.462289    86.972670
    63   7   3     0.000000     1.546428    68.383649    87.743671
    64   7   1     0.000000     2.814938    68.039240    87.928493
    65   7   1     0.000000     4.271557    67.621978    88.154984
    66   7   2     0.000000     2.524044    70.989403    85.832194
    67   7   2     0.000000     1.046532    71.512380    86.605734
    68   7   2     0.000000     0.977071    70.496825    85.185728
    69   7   2     0.000000     2.198563    69.960154    87.659001
    70   7   2     0.000000     0.906302    68.959199    86.278099
    71   7   2     0.000000     3.034052    69.021787    88.289642
    72   7   2     0.000000     2.597862    67.060107    87.554298
    73   7   2     0.000000     4.818833    68.446664    88.561421
    74   7   2     0.000000     4.707559    67.329518    87.223280
    75   7   2     0.000000     4.304892    66.800069    88.839664
    76   8   1     0.000000    12.715196    33.003106    80.565525
    77   8   1     0.000000    11.804379    34.211862    80.805432
    78   8   3     0.000000    11.006804    35.253976    80.994589
    79   8   1     0.000000    11.326636    35.778680    82.171147
    80   8   1     0.000000    11.677552    36.401016    83.526396
    81   8   2     0.000000    13.376295    32.882998    81.398830
    82   8   2     0.000000    13.288017    33.158984    79.675186
    83   8   2     0.000000    12.117667    32.122272    80.454994
    84   8   2     0.000000    12.661796    34.832440    80.961010
    85   8   2     0.000000    10.946682    33.587595    80.665227
    86   8   2     0.000000    12.346319    35.865730    81.860492
    87   8   2     0.000000    10.308504    35.678828    82.486238
    88   8   2     0.000000    12.719798    36.641974    83.548103
    89   8   2     0.000000    11.456685    35.703830    84.306686
    90   8   2     0.000000    11.102663    37.292379    83.669243
    91   9   1     0.000000    19.155887    33.351293    11.267808
    92   9   1     0.000000    18.244190    34.238843    10.413819
    93   9   3     0.000000    17.438677    34.999564     9.685561
    94   9   1     0.000000    18.200687    35.646169     8.811984
    95   9   1     0.000000    19.059800    36.402804     7.793862
    96   9   2     0.000000    20.171020    33.471661    10.950174
    97   9   2     0.000000    19.067852    33.634074    12.296112
    98   9   2     0.000000    18.865967    32.327533    11.153840
    99   9   2     0.000000    18.834247    35.094856    10.665929
   100   9   2     0.000000    17.663468    33.379890    10.149292
   101   9   2     0.000000    18.804575    36.022789     9.610305
   102   9   2     0.000000    17.603981    35.258011     8.012534
   103   9   2     0.000000    19.824183    36.947088     8.307945
   104   9   2     0.000000    19.510758    35.705605     7.119878
   105   9   2     0.000000    18.444509    37.084977     7.244782
   106  10   1     0.000000    55.222278    35.724645    51.191236
   107  10   1     0.000000    56.198404    36.268616    50.142662
   108  10   3     0.000000    57.026812    36.748128    49.225211
   109  10   1     0.000000    58.246704    36.340344    49.553038
   110  10   1     0.000000    59.663640    35.880603    49.910913
   111  10   2     0.000000    55.761586    35.155783    51.920220
   112  10   2     0.000000    54.724205    36.540458    51.672379
   113  10   2     0.000000    54.498709    35.097225    50.713825
   114  10   2     0.000000    56.783562    36.720745    50.915743
   115  10   2     0.000000    55.621588    35.803120    49.370906
   116  10   2     0.000000    58.133520    36.768815    50.526403
   117  10   2     0.000000    58.354142    35.900041    48.583277
   118  10   2     0.000000    59.895927    36.187860    50.909134
   119  10   2     0.000000    59.720149    34.814762    49.843901
   120  10   2     0.000000    60.363663    36.319824    49.230849
   121  11   1     0.000000    63.721108    21.117921    21.204890
   122  11   1     0.000000    64.908027    22.031739    21.527989
   123  11   3     0.000000    65.921763    22.838721    21.809103
   124  11   1     0.000000    67.024830    22.101027    21.778347
   125  11   1     0.000000    68.311500    21.269959    21.747508
   126  11   2     0.000000    64.073275    20.121330    21.035598
   127  11   2     0.000000    63.035551    21.119348    22.026556
   128  11   2     0.000000    63.224909    21.474453    20.326368
   129  11   2     0.000000    65.201859    21.376759    22.321178
   130  11   2     0.000000    64.622929    22.678434    20.724549
   131  11   2     0.000000    66.597109    21.423392    22.486657
   132  11   2     0.000000    67.447063    22.772264    21.059316
   133  11   2     0.000000    68.216391    20.441894    22.418382
   134  11   2     0.000000    68.477951    20.907376    20.755274
   135  11   2     0.000000    69.137533    21.879954    22.049181
   136  12   1     0.000000    27.960364    24.451066    46.867901
   137  12   1     0.000000    27.746079    25.474616    47.988017
   138  12   3     0.000000    27.542126    26.365405    48.948645
   139  12   1     0.000000    28.588991    26.304789    49.762460
   140  12   1     0.000000    29.786633    26.251912    50.716400
   141  12   2     0.000000    28.891907    23.945843    47.019073
   142  12   2     0.000000    27.976249    24.953735    45.923339
   143  12   2     0.000000    27.162537    23.737984    46.878543
   144  12   2     0.000000    28.692272    25.921822    47.766182
   145  12   2     0.000000    26.806839    25.017371    48.219895
   146  12   2     0.000000    29.247194    26.469846    48.935802
   147  12   2     0.000000    27.930479    26.126221    50.587276
   148  12   2     0.000000    30.689165    26.408227    50.163400
   149  12   2     0.000000    29.821454    25.294724    51.192091
   150  12   2     0.000000    29.686071    27.016962    51.458032
   151  13   1     0.000000    19.532100    87.996090    79.674308
   152  13   1     0.000000    20.378044    88.378954    80.893336
   153  13   3     0.000000    21.108007    88.690568    81.955389
   154  13   1     0.000000    21.463469    89.962486    81.822105
   155  13   1     0.000000    21.886847    91.428868    81.689365
   156  13   2     0.000000    19.439521    88.841338    79.024032
   157  13   2     0.000000    18.560110    87.686350    79.997452
   158  13   2     0.000000    20.005657    87.192858    79.149246
   159  13   2     0.000000    19.721883    89.199134    81.096415
   160  13   2     0.000000    21.042989    87.567961    80.680851
   161  13   2     0.000000    20.437400    90.242397    81.709539
   162  13   2     0.000000    22.491164    89.679941    81.921390
   163  13   2     0.000000    21.017662    92.040303    81.564968
   164  13   2     0.000000    22.525352    91.539922    80.838671
   165  13   2     0.000000    22.411105    91.730181    82.572425
   166  14   1     0.000000    62.661066    18.808156    65.395755
   167  14   1     0.000000    64.033488    19.275877    64.899842
   168  14   3     0.000000    65.211418    19.693263    64.456926
   169  14   1     0.000000    66.138698    19.037084    65.143566
   170  14   1     0.000000    67.226610    18.290995    65.922631
   171  14   2     0.000000    62.790021    18.074916    66.164913
   172  14   2     0.000000    62.119027    19.643885    65.786748
   173  14   2     0.000000    62.114873    18.378532    64.581984
   174  14   2     0.000000    64.314316    19.527299    65.901045
   175  14   2     0.000000    63.758042    19.009730    63.900690
   176  14   2     0.000000    65.702176    19.370779    66.061136
   177  14   2     0.000000    66.567084    18.692481    64.225100
   178  14   2     0.000000    67.079023    18.440639    66.971742
   179  14   2     0.000000    67.171274    17.246354    65.700447
   180  14   2     0.000000    68.188367    18.666612    65.640907
   181  15   1     0.000000    92.753304    67.245660    52.656531
   182  15   1     0.000000    93.255419    66.465436    53.876107
   183  15   3     0.000000    93.670962    65.792634    54.940329
   184  15   1     0.000000    94.941105    65.472636    54.725310
   185  15   1     0.000000    96.408091    65.092891    54.499725
   186  15   2     0.000000    93.544367    67.338446    51.941350
   187  15   2     0.000000    91.930758    66.724188    52.213123
   188  15   2     0.000000    92.433897    68.219971    52.962841
   189  15   2     0.000000    93.561583    65.661021    53.240761
   190  15   2     0.000000    92.963348    67.276795    54.509670
   191  15   2     0.000000    94.672108    65.006149    53.801260
   192  15   2     0.000000    95.211467    65.951465    55.643718
   193  15   2     0.000000    96.498349    64.551787    53.581101
   194  15   2     0.000000    97.002525    65.980533    54.450301
   195  15   2     0.000000    96.746459    64.479870    55.309135
   196  16   1     0.000000    85.652227    11.827713    48.843053
   197  16   1     0.000000    85.323527    10.401393    48.389397
   198  16   3     0.000000    85.021281     9.174365    47.988205
   199  16   1     0.000000    85.995728     8.377516    48.409369
   200  16   1     0.000000    87.108250     7.438248    48.886039
   201  16   2     0.000000    86.576901    11.826875    49.382360
   202  16   2     0.000000    85.739196    12.463491    47.986695
   203  16   2     0.000000    84.870146    12.189667    49.477455
   204  16   2     0.000000    86.276520    10.330153    47.908551
   205  16   2     0.000000    84.376793    10.467263    48.883732
   206  16   2     0.000000    86.718906     8.995828    47.920962
   207  16   2     0.000000    85.272657     7.766637    48.909209
   208  16   2     0.000000    88.051598     7.792857    48.526656
   209  16   2     0.000000    87.120528     7.413937    49.955132
   210  16   2     0.000000    86.930111     6.453184    48.507428
   211  17   1     0.000000     6.695529    50.123864    13.126615
   212  17   1     0.000000     6.614160    51.428585    13.926187
   213  17   3     0.000000     6.540428    52.546298    14.635544
   214  17   1     0.000000     6.697773    53.555099    13.787335
   215  17   1     0.000000     6.875959    54.735476    12.827073
   216  17   2     0.000000     6.856817    50.348150    12.092421
   217  17   2     0.000000     7.506722    49.530296    13.493723
   218  17   2     0.000000     5.779595    49.581197    13.234809
   219  17   2     0.000000     7.564448    51.730436    13.538471
   220  17   2     0.000000     5.656572    51.133433    14.301582
   221  17   2     0.000000     7.619661    53.132238    13.448001
   222  17   2     0.000000     5.768352    53.970749    14.117879
   223  17   2     0.000000     7.794231    54.621620    12.289838
   224  17   2     0.000000     6.059734    54.759537    12.136494
   225  17   2     0.000000     6.900246    55.648592    13.384803
   226  18   1     0.000000    76.735606    33.006524    51.581459
   227  18   1     0.000000    77.415696    33.689490    52.772790
   228  18   3     0.000000    77.988292    34.294269    53.804431
   229  18   1     0.000000    79.124951    33.653407    54.047732
   230  18   1     0.000000    80.441940    32.930004    54.346686
   231  18   2     0.000000    77.340820    32.190495    51.244284
   232  18   2     0.000000    75.776055    32.639295    51.880678
   233  18   2     0.000000    76.614722    33.712635    50.786524
   234  18   2     0.000000    77.466200    32.752495    53.286576
   235  18   2     0.000000    77.379183    34.623657    52.252204
   236  18   2     0.000000    78.592403    32.729371    54.127655
   237  18   2     0.000000    79.658941    34.576428    53.954285
   238  18   2     0.000000    80.248399    31.889757    54.505543
   239  18   2     0.000000    81.108353    33.046022    53.518353
   240  18   2     0.000000    80.887016    33.347972    55.225687
   241  19   1     0.000000    16.906822    67.252272    23.925632
   242  19   1     0.000000    17.989614    66.743782    22.967909
   243  19   3     0.000000    18.925984    66.285114    22.148921
   244  19   1     0.000000    19.251533    67.281828    21.334997
   245  19   1     0.000000    19.644481    68.417694    20.384974
   246  19   2     0.000000    16.684672    68.275440    23.702805
   247  19   2     0.000000    16.022004    66.661652    23.809907
   248  19   2     0.000000    17.257193    67.175207    24.933813
   249  19   2     0.000000    17.393705    67.039826    22.130213
   250  19   2     0.000000    18.592197    66.462065    23.806086
   251  19   2     0.000000    18.225748    67.393464    21.053677
   252  19   2     0.000000    20.276133    67.178410    21.627137
   253  19   2     0.000000    18.771145    68.782166    19.885722
   254  19   2     0.000000    20.092454    69.211429    20.944443
   255  19   2     0.000000    20.342357    68.051747    19.660761
   256  20   1     0.000000    84.664637    72.772279    40.529728
   257  20   1     0.000000    84.647272    73.068078    39.026253
   258  20   3     0.000000    84.611630    73.328135    37.726635
   259  20   1     0.000000    85.847835    73.178267    37.267037
   260  20   1     0.000000    87.266895    73.012295    36.713984
   261  20   2     0.000000    85.660108    72.521352    40.832956
   262  20   2     0.000000    84.010235    71.952032    40.739676
   263  20   2     0.000000    84.335738    73.637021    41.067477
   264  20   2     0.000000    85.091833    72.115153    38.829313
   265  20   2     0.000000    84.217038    74.027528    39.224656
   266  20   2     0.000000    85.882331    72.187812    37.669091
   267  20   2     0.000000    85.817547    74.174503    36.876598
   268  20   2     0.000000    87.629190    72.033970    36.951534
   269  20   2     0.000000    87.908753    73.746335    37.153196
   270  20   2     0.000000    87.252706    73.138757    35.651328
   271  21   1     0.000000    30.816146    72.421851    67.943031
   272  21   1     0.000000    31.603037    72.353163    66.629898
   273  21   3     0.000000    32.274581    72.275353    65.489336
   274  21   1     0.000000    33.051997    73.349181    65.422920
   275  21   1     0.000000    33.958666    74.580223    65.324779
   276  21   2     0.000000    31.086924    73.310002    68.475706
   277  21   2     0.000000    29.767549    72.439103    67.730257
   278  21   2     0.000000    31.044186    71.564272    68.541097
   279  21   2     0.000000    31.245294    73.324518    66.359761
   280  21   2     0.000000    31.973128    71.388287    66.907490
   281  21   2     0.000000    32.200154    73.980438    65.563335
   282  21   2     0.000000    33.905921    72.716313    65.295887
   283  21   2     0.000000    33.366980    75.466483    65.421007
   284  21   2     0.000000    34.686028    74.550581    66.108212
   285  21   2     0.000000    34.454056    74.583734    64.376091
   286  22   1     0.000000     2.112426     1.975620    30.318746
   287  22   1     0.000000     0.932887     2.803393    30.840007
   288  22   3     0.000000    99.905555     3.522104    31.271226
   289  22   1     0.000000    99.993360     3.568990    32.594852
   290  22   1     0.000000     0.073453     3.636042    34.123326
   291  22   2     0.000000     2.708041     1.643465    31.143847
   292  22   2     0.000000     2.710301     2.577549    29.666555
   293  22   2     0.000000     1.743196     1.127000    29.781492
   294  22   2     0.000000     1.609482     3.445487    31.363857
   295  22   2     0.000000     0.255517     2.151682    30.328683
   296  22   2     0.000000     0.989582     3.950797    32.520001
   297  22   2     0.000000    99.001169     3.174167    32.669140
   298  22   2     0.000000     1.027446     4.024410    34.412940
   299  22   2     0.000000    99.949791     2.654760    34.530137
   300  22   2     0.000000    99.300458     4.277155    34.493307
   301  23   1     0.000000    66.775347    68.724766    86.780251
   302  23   1     0.000000    67.511717    67.523797    86.177203
   303  23   3     0.000000    68.130726    66.478036    85.646998
   304  23   1     0.000000    69.404091    66.553948    86.013973
   305  23   1     0.000000    70.878247    66.620041    86.425851
   306  23   2     0.000000    67.464209    69.320445    87.342844
   307  23   2     0.000000    66.352050    69.315163    85.994518
   308  23   2     0.000000    65.995002    68.377932    87.425151
   309  23   2     0.000000    68.219349    68.182380    85.718933
   310  23   2     0.000000    66.812975    66.864540    86.648531
   311  23   2     0.000000    69.466372    67.542484    85.610543
   312  23   2     0.000000    69.337275    65.569722    86.429522
   313  23   2     0.000000    71.288218    67.563224    86.130659
   314  23   2     0.000000    70.956953    66.513748    87.487081
   315  23   2     0.000000    71.418537    65.830690    85.945807
   316  24   1     0.000000    22.950657    72.843562    60.634659
   317  24   1     0.000000    24.347970    72.867377    61.263294
   318  24   3     0.000000    25.553856    72.868442    61.814425
   319  24   1     0.000000    26.094312    74.054377    61.562716
   320  24   1     0.000000    26.738165    75.416613    61.285384
   321  24   2     0.000000    22.759215    73.780634    60.153908
   322  24   2     0.000000    22.897226    72.054956    59.913291
   323  24   2     0.000000    22.218738    72.678541    61.397673
   324  24   2     0.000000    24.773231    73.133157    60.318307
   325  24   2     0.000000    23.920523    72.616870    62.211738
   326  24   2     0.000000    25.924904    73.914729    60.515989
   327  24   2     0.000000    26.251328    74.199290    62.611617
   328  24   2     0.000000    26.742039    75.600354    60.231329
   329  24   2     0.000000    26.178070    76.182626    61.778557
   330  24   2     0.000000    27.744079    75.416817    61.650856
   331  25   1     0.000000    37.178636    47.471560    42.330701
   332  25   1     0.000000    37.126162    48.921522    41.837656
   333  25   3     0.000000    37.059718    50.175316    41.411639
   334  25   1     0.000000    38.307485    50.589441    41.228678
   335  25   1     0.000000    39.738984    51.089233    41.009219
   336  25   2     0.000000    38.198844    47.155766    42.403680
   337  25   2     0.000000    36.714735    47.404697    43.292705
   338  25   2     0.000000    36.658969    46.840651    41.640030
   339  25   2     0.000000    37.771349    49.221066    42.636713
   340  25   2     0.000000    36.493504    48.618960    41.029441
   341  25   2     0.000000    38.549192    50.321142    42.235371
   342  25   2     0.000000    38.068401    50.845269    40.217126
   343  25   2     0.000000    40.301076    50.966070    41.911269
   344  25   2     0.000000    40.196942    50.525519    40.224233
   345  25   2     0.000000    39.718023    52.125120    40.741020
   346  26   1     0.000000     1.372062    68.093838    51.331067
   347  26   1     0.000000     1.957296    68.937805    50.193765
   348  26   3     0.000000     2.445270    69.678161    49.208036
   349  26   1     0.000000     3.692790    69.274799    49.000941
   350  26   1     0.000000     5.134564    68.825416    48.743090
   351  26   2     0.000000     2.107568    67.394875    51.672178
   352  26   2     0.000000     1.085920    68.733778    52.139599
   353  26   2     0.000000     0.513515    67.562760    50.976130
   354  26   2     0.000000     2.779152    69.217832    50.818762
   355  26   2     0.000000     1.143370    68.645019    49.563835
   356  26   2     0.000000     3.922726    69.440887    50.032145
   357  26   2     0.000000     3.458312    69.096035    47.971907
   358  26   2     0.000000     5.694960    68.888599    49.652360
   359  26   2     0.000000     5.135776    67.814809    48.393272
   360  26   2     0.000000     5.579614    69.460309    48.005341
   361  27   1     0.000000    32.194469    55.804403    15.091435
   362  27   1     0.000000    31.262719    56.567778    14.144158
   363  27   3     0.000000    30.439990    57.221550    13.335699
   364  27   1     0.000000    31.189610    57.805142    12.408670
   365  27   1     0.000000    32.034195    58.487251    11.327676
   366  27   2     0.000000    33.208668    55.929743    14.772742
   367  27   2     0.000000    32.083085    56.185245    16.085256
   368  27   2     0.000000    31.942858    54.764381    15.078243
   369  27   2     0.000000    31.818466    57.465909    14.314428
   370  27   2     0.000000    30.716569    55.665826    13.961915
   371  27   2     0.000000    31.769265    58.281796    13.170667
   372  27   2     0.000000    30.617559    57.317168    11.646775
   373  27   2     0.000000    32.771906    59.108084    11.791526
   374  27   2     0.000000    32.518484    57.743209    10.731380
   375  27   2     0.000000    31.402044    59.087875    10.707139
   376  28   1     0.000000    25.375727    75.595133    16.511520
   377  28   1     0.000000    26.813299    75.217560    16.138616
   378  28   3     0.000000    28.056691    74.875608    15.830474
   379  28   1     0.000000    28.463066    75.706916    14.878801
   380  28   1     0.000000    28.954466    76.655486    13.780673
   381  28   2     0.000000    25.059731    76.428027    15.917964
   382  28   2     0.000000    24.729323    74.761883    16.329913
   383  28   2     0.000000    25.333436    75.859581    17.547574
   384  28   2     0.000000    26.526995    75.124109    15.112078
   385  28   2     0.000000    27.102723    75.326365    17.163022
   386  28   2     0.000000    27.614935    75.445752    14.281889
   387  28   2     0.000000    29.304510    75.977866    15.482460
   388  28   2     0.000000    28.277119    76.622946    12.953055
   389  28   2     0.000000    28.999934    77.652474    14.164925
   390  28   2     0.000000    29.928177    76.351888    13.456408
   391  29   1     0.000000    18.008910    59.422171    51.492678
   392  29   1     0.000000    19.446408    59.243521    50.992761
   393  29   3     0.000000    20.687765    59.068053    50.561311
   394  29   1     0.000000    21.211897    60.274964    50.386537
   395  29   1     0.000000    21.838460    61.657438    50.178383
   396  29   2     0.000000    17.787010    60.466008    51.576580
   397  29   2     0.000000    17.331190    58.967840    50.800287
   398  29   2     0.000000    17.903883    58.957503    52.450896
   399  29   2     0.000000    19.233438    59.862110    50.146311
   400  29   2     0.000000    19.663526    58.637657    51.847629
   401  29   2     0.000000    20.397585    60.541104    49.746299
   402  29   2     0.000000    22.019605    60.012504    51.038126
   403  29   2     0.000000    21.224712    62.229996    49.514832
   404  29   2     0.000000    21.912089    62.160726    51.119118
   405  29   2     0.000000    22.814774    61.546453    49.754207
   406  30   1     0.000000    76.173765    88.146477    25.072131
   407  30   1     0.000000    76.240105    89.629882    24.693527
   408  30   3     0.000000    76.280689    90.917034    24.378090
   409  30   1     0.000000    77.293219    91.078040    23.535027
   410  30   1     0.000000    78.456070    91.287989    22.559915
   411  30   2     0.000000    76.952667    87.613665    24.566861
   412  30   2     0.000000    76.298182    88.042180    26.129850
   413  30   2     0.000000    75.223854    87.746698    24.784078
   414  30   2     0.000000    77.263913    89.667110    25.001612
   415  30   2     0.000000    75.220703    89.588389    24.370868
   416  30   2     0.000000    77.957615    90.622474    24.238501
   417  30   2     0.000000    76.625130    91.521694    22.826032
   418  30   2     0.000000    79.359553    90.919561    22.998992
   419  30   2     0.000000    78.259636    90.758667    21.651657
   420  30   2     0.000000    78.561748    92.332161    22.350226
   421  31   1     0.000000    31.294659    11.402145    54.750615
   422  31   1     0.000000    32.155495    12.555283    55.277369
   423  31   3     0.000000    32.891386    13.565874    55.719044
   424  31   1     0.000000    33.634567    13.098480    56.714593
   425  31   1     0.000000    34.501643    12.581837    57.867157
   426  31   2     0.000000    31.504110    10.514830    55.311576
   427  31   2     0.000000    31.518352    11.232576    53.717981
   428  31   2     0.000000    30.259583    11.653131    54.854303
   429  31   2     0.000000    33.038309    11.969360    55.129659
   430  31   2     0.000000    31.271052    13.135313    55.439660
   431  31   2     0.000000    34.013449    12.328327    56.076510
   432  31   2     0.000000    33.244769    13.861358    57.356404
   433  31   2     0.000000    35.073439    11.741393    57.533219
   434  31   2     0.000000    33.873685    12.285117    58.680377
   435  31   2     0.000000    35.164096    13.357631    58.190779
   436  32   1     0.000000    23.048333    55.241525    28.272655
   437  32   1     0.000000    24.059624    54.520236    27.375289
   438  32   3     0.000000    24.928456    53.877742    26.607019
   439  32   1     0.000000    25.575376    54.796718    25.900709
   440  32   1     0.000000    26.336018    55.839470    25.075338
   441  32   2     0.000000    23.114788    56.297299    28.108947
   442  32   2     0.000000    22.059772    54.905599    28.038073